h 0.5 1 7 cbr 1000 ------- 0 1.0 0.0 0 0
h 0.5 2 7 cbr 1000 ------- 0 2.0 0.1 0 1
h 0.5 3 7 cbr 1000 ------- 0 3.0 0.2 0 2
h 0.5 4 7 cbr 1000 ------- 0 4.0 0.3 0 3
h 0.5 5 7 cbr 1000 ------- 0 5.0 0.4 0 4
h 0.5 6 7 cbr 1000 ------- 0 6.0 0.5 0 5
+ 0.5 1 7 cbr 1000 ------- 0 1.0 0.0 0 0
- 0.5 1 7 cbr 1000 ------- 0 1.0 0.0 0 0
+ 0.5 2 7 cbr 1000 ------- 0 2.0 0.1 0 1
- 0.5 2 7 cbr 1000 ------- 0 2.0 0.1 0 1
+ 0.5 3 7 cbr 1000 ------- 0 3.0 0.2 0 2
- 0.5 3 7 cbr 1000 ------- 0 3.0 0.2 0 2
+ 0.5 4 7 cbr 1000 ------- 0 4.0 0.3 0 3
- 0.5 4 7 cbr 1000 ------- 0 4.0 0.3 0 3
+ 0.5 5 7 cbr 1000 ------- 0 5.0 0.4 0 4
- 0.5 5 7 cbr 1000 ------- 0 5.0 0.4 0 4
+ 0.5 6 7 cbr 1000 ------- 0 6.0 0.5 0 5
- 0.5 6 7 cbr 1000 ------- 0 6.0 0.5 0 5
r 0.508248 7 0 cbr 1000 ------- 0 4.0 0.3 0 3
r 0.517748 7 0 cbr 1000 ------- 0 1.0 0.0 0 0
r 0.526604 7 0 cbr 1000 ------- 0 2.0 0.1 0 1
r 0.543652 7 0 cbr 1000 ------- 0 5.0 0.4 0 4
r 0.576572 7 0 cbr 1000 ------- 0 6.0 0.5 0 5
h 0.58 1 7 cbr 1000 ------- 0 1.0 0.0 1 6
h 0.58 2 7 cbr 1000 ------- 0 2.0 0.1 1 7
h 0.58 3 7 cbr 1000 ------- 0 3.0 0.2 1 8
h 0.58 4 7 cbr 1000 ------- 0 4.0 0.3 1 9
h 0.58 5 7 cbr 1000 ------- 0 5.0 0.4 1 10
h 0.58 6 7 cbr 1000 ------- 0 6.0 0.5 1 11
+ 0.58 1 7 cbr 1000 ------- 0 1.0 0.0 1 6
- 0.58 1 7 cbr 1000 ------- 0 1.0 0.0 1 6
+ 0.58 2 7 cbr 1000 ------- 0 2.0 0.1 1 7
- 0.58 2 7 cbr 1000 ------- 0 2.0 0.1 1 7
+ 0.58 3 7 cbr 1000 ------- 0 3.0 0.2 1 8
+ 0.58 4 7 cbr 1000 ------- 0 4.0 0.3 1 9
- 0.58 4 7 cbr 1000 ------- 0 4.0 0.3 1 9
+ 0.58 5 7 cbr 1000 ------- 0 5.0 0.4 1 10
- 0.58 5 7 cbr 1000 ------- 0 5.0 0.4 1 10
+ 0.58 6 7 cbr 1000 ------- 0 6.0 0.5 1 11
- 0.58 6 7 cbr 1000 ------- 0 6.0 0.5 1 11
r 0.584784 7 0 cbr 1000 ------- 0 3.0 0.2 0 2
- 0.584876 3 7 cbr 1000 ------- 0 3.0 0.2 1 8
r 0.594412 7 0 cbr 1000 ------- 0 1.0 0.0 1 6
r 0.602756 7 0 cbr 1000 ------- 0 6.0 0.5 1 11
r 0.611612 7 0 cbr 1000 ------- 0 4.0 0.3 1 9
r 0.624412 7 0 cbr 1000 ------- 0 2.0 0.1 1 7
h 0.66 1 7 cbr 1000 ------- 0 1.0 0.0 2 12
h 0.66 2 7 cbr 1000 ------- 0 2.0 0.1 2 13
h 0.66 3 7 cbr 1000 ------- 0 3.0 0.2 2 14
h 0.66 4 7 cbr 1000 ------- 0 4.0 0.3 2 15
h 0.66 5 7 cbr 1000 ------- 0 5.0 0.4 2 16
h 0.66 6 7 cbr 1000 ------- 0 6.0 0.5 2 17
+ 0.66 1 7 cbr 1000 ------- 0 1.0 0.0 2 12
- 0.66 1 7 cbr 1000 ------- 0 1.0 0.0 2 12
+ 0.66 2 7 cbr 1000 ------- 0 2.0 0.1 2 13
- 0.66 2 7 cbr 1000 ------- 0 2.0 0.1 2 13
+ 0.66 3 7 cbr 1000 ------- 0 3.0 0.2 2 14
+ 0.66 4 7 cbr 1000 ------- 0 4.0 0.3 2 15
- 0.66 4 7 cbr 1000 ------- 0 4.0 0.3 2 15
+ 0.66 5 7 cbr 1000 ------- 0 5.0 0.4 2 16
+ 0.66 6 7 cbr 1000 ------- 0 6.0 0.5 2 17
- 0.66 6 7 cbr 1000 ------- 0 6.0 0.5 2 17
r 0.66838 7 0 cbr 1000 ------- 0 6.0 0.5 2 17
r 0.67826 7 0 cbr 1000 ------- 0 1.0 0.0 2 12
r 0.687628 7 0 cbr 1000 ------- 0 4.0 0.3 2 15
r 0.69584 7 0 cbr 1000 ------- 0 2.0 0.1 2 13
r 0.7141 7 0 cbr 1000 ------- 0 5.0 0.4 1 10
- 0.714192 5 7 cbr 1000 ------- 0 5.0 0.4 2 16
r 0.722308 7 0 cbr 1000 ------- 0 5.0 0.4 2 16
h 0.74 1 7 cbr 1000 ------- 0 1.0 0.0 3 18
h 0.74 2 7 cbr 1000 ------- 0 2.0 0.1 3 19
h 0.74 3 7 cbr 1000 ------- 0 3.0 0.2 3 20
h 0.74 4 7 cbr 1000 ------- 0 4.0 0.3 3 21
h 0.74 5 7 cbr 1000 ------- 0 5.0 0.4 3 22
h 0.74 6 7 cbr 1000 ------- 0 6.0 0.5 3 23
+ 0.74 1 7 cbr 1000 ------- 0 1.0 0.0 3 18
- 0.74 1 7 cbr 1000 ------- 0 1.0 0.0 3 18
+ 0.74 2 7 cbr 1000 ------- 0 2.0 0.1 3 19
- 0.74 2 7 cbr 1000 ------- 0 2.0 0.1 3 19
+ 0.74 3 7 cbr 1000 ------- 0 3.0 0.2 3 20
+ 0.74 4 7 cbr 1000 ------- 0 4.0 0.3 3 21
- 0.74 4 7 cbr 1000 ------- 0 4.0 0.3 3 21
+ 0.74 5 7 cbr 1000 ------- 0 5.0 0.4 3 22
- 0.74 5 7 cbr 1000 ------- 0 5.0 0.4 3 22
+ 0.74 6 7 cbr 1000 ------- 0 6.0 0.5 3 23
- 0.74 6 7 cbr 1000 ------- 0 6.0 0.5 3 23
r 0.748892 7 0 cbr 1000 ------- 0 5.0 0.4 3 22
r 0.758772 7 0 cbr 1000 ------- 0 2.0 0.1 3 19
r 0.767116 7 0 cbr 1000 ------- 0 1.0 0.0 3 18
r 0.775972 7 0 cbr 1000 ------- 0 4.0 0.3 3 21
r 0.785548 7 0 cbr 1000 ------- 0 3.0 0.2 1 8
- 0.78564 3 7 cbr 1000 ------- 0 3.0 0.2 2 14
r 0.793756 7 0 cbr 1000 ------- 0 3.0 0.2 2 14
- 0.793848 3 7 cbr 1000 ------- 0 3.0 0.2 3 20
r 0.8021 7 0 cbr 1000 ------- 0 3.0 0.2 3 20
h 0.82 1 7 cbr 1000 ------- 0 1.0 0.0 4 24
h 0.82 2 7 cbr 1000 ------- 0 2.0 0.1 4 25
h 0.82 3 7 cbr 1000 ------- 0 3.0 0.2 4 26
h 0.82 4 7 cbr 1000 ------- 0 4.0 0.3 4 27
h 0.82 5 7 cbr 1000 ------- 0 5.0 0.4 4 28
h 0.82 6 7 cbr 1000 ------- 0 6.0 0.5 4 29
+ 0.82 1 7 cbr 1000 ------- 0 1.0 0.0 4 24
- 0.82 1 7 cbr 1000 ------- 0 1.0 0.0 4 24
+ 0.82 2 7 cbr 1000 ------- 0 2.0 0.1 4 25
- 0.82 2 7 cbr 1000 ------- 0 2.0 0.1 4 25
+ 0.82 3 7 cbr 1000 ------- 0 3.0 0.2 4 26
- 0.82 3 7 cbr 1000 ------- 0 3.0 0.2 4 26
+ 0.82 4 7 cbr 1000 ------- 0 4.0 0.3 4 27
- 0.82 4 7 cbr 1000 ------- 0 4.0 0.3 4 27
+ 0.82 5 7 cbr 1000 ------- 0 5.0 0.4 4 28
- 0.82 5 7 cbr 1000 ------- 0 5.0 0.4 4 28
+ 0.82 6 7 cbr 1000 ------- 0 6.0 0.5 4 29
r 0.828248 7 0 cbr 1000 ------- 0 1.0 0.0 4 24
r 0.837104 7 0 cbr 1000 ------- 0 4.0 0.3 4 27
r 0.845448 7 0 cbr 1000 ------- 0 5.0 0.4 4 28
r 0.855328 7 0 cbr 1000 ------- 0 3.0 0.2 4 26
r 0.86354 7 0 cbr 1000 ------- 0 2.0 0.1 4 25
h 0.9 1 7 cbr 1000 ------- 0 1.0 0.0 5 30
h 0.9 2 7 cbr 1000 ------- 0 2.0 0.1 5 31
h 0.9 3 7 cbr 1000 ------- 0 3.0 0.2 5 32
h 0.9 4 7 cbr 1000 ------- 0 4.0 0.3 5 33
h 0.9 5 7 cbr 1000 ------- 0 5.0 0.4 5 34
h 0.9 6 7 cbr 1000 ------- 0 6.0 0.5 5 35
+ 0.9 1 7 cbr 1000 ------- 0 1.0 0.0 5 30
- 0.9 1 7 cbr 1000 ------- 0 1.0 0.0 5 30
+ 0.9 2 7 cbr 1000 ------- 0 2.0 0.1 5 31
- 0.9 2 7 cbr 1000 ------- 0 2.0 0.1 5 31
+ 0.9 3 7 cbr 1000 ------- 0 3.0 0.2 5 32
- 0.9 3 7 cbr 1000 ------- 0 3.0 0.2 5 32
+ 0.9 4 7 cbr 1000 ------- 0 4.0 0.3 5 33
- 0.9 4 7 cbr 1000 ------- 0 4.0 0.3 5 33
+ 0.9 5 7 cbr 1000 ------- 0 5.0 0.4 5 34
- 0.9 5 7 cbr 1000 ------- 0 5.0 0.4 5 34
+ 0.9 6 7 cbr 1000 ------- 0 6.0 0.5 5 35
r 0.908892 7 0 cbr 1000 ------- 0 4.0 0.3 5 33
r 0.917236 7 0 cbr 1000 ------- 0 3.0 0.2 5 32
r 0.92558 7 0 cbr 1000 ------- 0 5.0 0.4 5 34
r 0.93802 7 0 cbr 1000 ------- 0 1.0 0.0 5 30
r 0.946232 7 0 cbr 1000 ------- 0 2.0 0.1 5 31
h 0.98 1 7 cbr 1000 ------- 0 1.0 0.0 6 36
h 0.98 2 7 cbr 1000 ------- 0 2.0 0.1 6 37
h 0.98 3 7 cbr 1000 ------- 0 3.0 0.2 6 38
h 0.98 4 7 cbr 1000 ------- 0 4.0 0.3 6 39
h 0.98 5 7 cbr 1000 ------- 0 5.0 0.4 6 40
h 0.98 6 7 cbr 1000 ------- 0 6.0 0.5 6 41
+ 0.98 1 7 cbr 1000 ------- 0 1.0 0.0 6 36
- 0.98 1 7 cbr 1000 ------- 0 1.0 0.0 6 36
+ 0.98 2 7 cbr 1000 ------- 0 2.0 0.1 6 37
- 0.98 2 7 cbr 1000 ------- 0 2.0 0.1 6 37
+ 0.98 3 7 cbr 1000 ------- 0 3.0 0.2 6 38
- 0.98 3 7 cbr 1000 ------- 0 3.0 0.2 6 38
+ 0.98 4 7 cbr 1000 ------- 0 4.0 0.3 6 39
- 0.98 4 7 cbr 1000 ------- 0 4.0 0.3 6 39
+ 0.98 5 7 cbr 1000 ------- 0 5.0 0.4 6 40
- 0.98 5 7 cbr 1000 ------- 0 5.0 0.4 6 40
+ 0.98 6 7 cbr 1000 ------- 0 6.0 0.5 6 41
r 0.989156 7 0 cbr 1000 ------- 0 1.0 0.0 6 36
r 0.998524 7 0 cbr 1000 ------- 0 2.0 0.1 6 37
r 1.008404 7 0 cbr 1000 ------- 0 4.0 0.3 6 39
r 1.026096 7 0 cbr 1000 ------- 0 5.0 0.4 6 40
r 1.034308 7 0 cbr 1000 ------- 0 3.0 0.2 6 38
r 1.052448 7 0 cbr 1000 ------- 0 6.0 0.5 3 23
- 1.05254 6 7 cbr 1000 ------- 0 6.0 0.5 4 29
h 1.06 1 7 cbr 1000 ------- 0 1.0 0.0 7 42
h 1.06 2 7 cbr 1000 ------- 0 2.0 0.1 7 43
h 1.06 3 7 cbr 1000 ------- 0 3.0 0.2 7 44
h 1.06 4 7 cbr 1000 ------- 0 4.0 0.3 7 45
h 1.06 5 7 cbr 1000 ------- 0 5.0 0.4 7 46
h 1.06 6 7 cbr 1000 ------- 0 6.0 0.5 7 47
+ 1.06 1 7 cbr 1000 ------- 0 1.0 0.0 7 42
- 1.06 1 7 cbr 1000 ------- 0 1.0 0.0 7 42
+ 1.06 2 7 cbr 1000 ------- 0 2.0 0.1 7 43
- 1.06 2 7 cbr 1000 ------- 0 2.0 0.1 7 43
+ 1.06 3 7 cbr 1000 ------- 0 3.0 0.2 7 44
- 1.06 3 7 cbr 1000 ------- 0 3.0 0.2 7 44
+ 1.06 4 7 cbr 1000 ------- 0 4.0 0.3 7 45
- 1.06 4 7 cbr 1000 ------- 0 4.0 0.3 7 45
+ 1.06 5 7 cbr 1000 ------- 0 5.0 0.4 7 46
- 1.06 5 7 cbr 1000 ------- 0 5.0 0.4 7 46
+ 1.06 6 7 cbr 1000 ------- 0 6.0 0.5 7 47
r 1.060656 7 0 cbr 1000 ------- 0 6.0 0.5 4 29
- 1.060748 6 7 cbr 1000 ------- 0 6.0 0.5 5 35
r 1.069128 7 0 cbr 1000 ------- 0 3.0 0.2 7 44
r 1.077984 7 0 cbr 1000 ------- 0 6.0 0.5 5 35
- 1.078076 6 7 cbr 1000 ------- 0 6.0 0.5 6 41
r 1.086968 7 0 cbr 1000 ------- 0 6.0 0.5 6 41
- 1.08706 6 7 cbr 1000 ------- 0 6.0 0.5 7 47
r 1.095824 7 0 cbr 1000 ------- 0 6.0 0.5 7 47
r 1.10724 7 0 cbr 1000 ------- 0 4.0 0.3 7 45
r 1.12736 7 0 cbr 1000 ------- 0 1.0 0.0 7 42
r 1.135572 7 0 cbr 1000 ------- 0 2.0 0.1 7 43
h 1.14 1 7 cbr 1000 ------- 0 1.0 0.0 8 48
h 1.14 2 7 cbr 1000 ------- 0 2.0 0.1 8 49
h 1.14 3 7 cbr 1000 ------- 0 3.0 0.2 8 50
h 1.14 4 7 cbr 1000 ------- 0 4.0 0.3 8 51
h 1.14 5 7 cbr 1000 ------- 0 5.0 0.4 8 52
h 1.14 6 7 cbr 1000 ------- 0 6.0 0.5 8 53
+ 1.14 1 7 cbr 1000 ------- 0 1.0 0.0 8 48
- 1.14 1 7 cbr 1000 ------- 0 1.0 0.0 8 48
+ 1.14 2 7 cbr 1000 ------- 0 2.0 0.1 8 49
- 1.14 2 7 cbr 1000 ------- 0 2.0 0.1 8 49
+ 1.14 3 7 cbr 1000 ------- 0 3.0 0.2 8 50
- 1.14 3 7 cbr 1000 ------- 0 3.0 0.2 8 50
+ 1.14 4 7 cbr 1000 ------- 0 4.0 0.3 8 51
- 1.14 4 7 cbr 1000 ------- 0 4.0 0.3 8 51
+ 1.14 5 7 cbr 1000 ------- 0 5.0 0.4 8 52
+ 1.14 6 7 cbr 1000 ------- 0 6.0 0.5 8 53
- 1.14 6 7 cbr 1000 ------- 0 6.0 0.5 8 53
r 1.148248 7 0 cbr 1000 ------- 0 4.0 0.3 8 51
r 1.16006 7 0 cbr 1000 ------- 0 1.0 0.0 8 48
r 1.173524 7 0 cbr 1000 ------- 0 2.0 0.1 8 49
r 1.181736 7 0 cbr 1000 ------- 0 6.0 0.5 8 53
r 1.189948 7 0 cbr 1000 ------- 0 5.0 0.4 7 46
- 1.19004 5 7 cbr 1000 ------- 0 5.0 0.4 8 52
r 1.198292 7 0 cbr 1000 ------- 0 5.0 0.4 8 52
h 1.22 1 7 cbr 1000 ------- 0 1.0 0.0 9 54
h 1.22 2 7 cbr 1000 ------- 0 2.0 0.1 9 55
h 1.22 3 7 cbr 1000 ------- 0 3.0 0.2 9 56
h 1.22 4 7 cbr 1000 ------- 0 4.0 0.3 9 57
h 1.22 5 7 cbr 1000 ------- 0 5.0 0.4 9 58
h 1.22 6 7 cbr 1000 ------- 0 6.0 0.5 9 59
+ 1.22 1 7 cbr 1000 ------- 0 1.0 0.0 9 54
- 1.22 1 7 cbr 1000 ------- 0 1.0 0.0 9 54
+ 1.22 2 7 cbr 1000 ------- 0 2.0 0.1 9 55
- 1.22 2 7 cbr 1000 ------- 0 2.0 0.1 9 55
+ 1.22 3 7 cbr 1000 ------- 0 3.0 0.2 9 56
+ 1.22 4 7 cbr 1000 ------- 0 4.0 0.3 9 57
- 1.22 4 7 cbr 1000 ------- 0 4.0 0.3 9 57
+ 1.22 5 7 cbr 1000 ------- 0 5.0 0.4 9 58
- 1.22 5 7 cbr 1000 ------- 0 5.0 0.4 9 58
+ 1.22 6 7 cbr 1000 ------- 0 6.0 0.5 9 59
- 1.22 6 7 cbr 1000 ------- 0 6.0 0.5 9 59
r 1.22838 7 0 cbr 1000 ------- 0 5.0 0.4 9 58
r 1.236724 7 0 cbr 1000 ------- 0 6.0 0.5 9 59
r 1.247116 7 0 cbr 1000 ------- 0 1.0 0.0 9 54
r 1.260068 7 0 cbr 1000 ------- 0 4.0 0.3 9 57
r 1.287868 7 0 cbr 1000 ------- 0 2.0 0.1 9 55
r 1.29608 7 0 cbr 1000 ------- 0 3.0 0.2 8 50
- 1.296172 3 7 cbr 1000 ------- 0 3.0 0.2 9 56
h 1.3 1 7 cbr 1000 ------- 0 1.0 0.0 10 60
h 1.3 2 7 cbr 1000 ------- 0 2.0 0.1 10 61
h 1.3 3 7 cbr 1000 ------- 0 3.0 0.2 10 62
h 1.3 4 7 cbr 1000 ------- 0 4.0 0.3 10 63
h 1.3 5 7 cbr 1000 ------- 0 5.0 0.4 10 64
h 1.3 6 7 cbr 1000 ------- 0 6.0 0.5 10 65
+ 1.3 1 7 cbr 1000 ------- 0 1.0 0.0 10 60
- 1.3 1 7 cbr 1000 ------- 0 1.0 0.0 10 60
+ 1.3 2 7 cbr 1000 ------- 0 2.0 0.1 10 61
- 1.3 2 7 cbr 1000 ------- 0 2.0 0.1 10 61
+ 1.3 3 7 cbr 1000 ------- 0 3.0 0.2 10 62
+ 1.3 4 7 cbr 1000 ------- 0 4.0 0.3 10 63
- 1.3 4 7 cbr 1000 ------- 0 4.0 0.3 10 63
+ 1.3 5 7 cbr 1000 ------- 0 5.0 0.4 10 64
- 1.3 5 7 cbr 1000 ------- 0 5.0 0.4 10 64
+ 1.3 6 7 cbr 1000 ------- 0 6.0 0.5 10 65
- 1.3 6 7 cbr 1000 ------- 0 6.0 0.5 10 65
r 1.304288 7 0 cbr 1000 ------- 0 3.0 0.2 9 56
- 1.30438 3 7 cbr 1000 ------- 0 3.0 0.2 10 62
r 1.31276 7 0 cbr 1000 ------- 0 6.0 0.5 10 65
r 1.321104 7 0 cbr 1000 ------- 0 1.0 0.0 10 60
r 1.32996 7 0 cbr 1000 ------- 0 5.0 0.4 10 64
r 1.342912 7 0 cbr 1000 ------- 0 4.0 0.3 10 63
r 1.35228 7 0 cbr 1000 ------- 0 2.0 0.1 10 61
h 1.38 1 7 cbr 1000 ------- 0 1.0 0.0 11 66
h 1.38 2 7 cbr 1000 ------- 0 2.0 0.1 11 67
h 1.38 3 7 cbr 1000 ------- 0 3.0 0.2 11 68
h 1.38 4 7 cbr 1000 ------- 0 4.0 0.3 11 69
h 1.38 5 7 cbr 1000 ------- 0 5.0 0.4 11 70
h 1.38 6 7 cbr 1000 ------- 0 6.0 0.5 11 71
+ 1.38 1 7 cbr 1000 ------- 0 1.0 0.0 11 66
- 1.38 1 7 cbr 1000 ------- 0 1.0 0.0 11 66
+ 1.38 2 7 cbr 1000 ------- 0 2.0 0.1 11 67
- 1.38 2 7 cbr 1000 ------- 0 2.0 0.1 11 67
+ 1.38 3 7 cbr 1000 ------- 0 3.0 0.2 11 68
+ 1.38 4 7 cbr 1000 ------- 0 4.0 0.3 11 69
- 1.38 4 7 cbr 1000 ------- 0 4.0 0.3 11 69
+ 1.38 5 7 cbr 1000 ------- 0 5.0 0.4 11 70
- 1.38 5 7 cbr 1000 ------- 0 5.0 0.4 11 70
+ 1.38 6 7 cbr 1000 ------- 0 6.0 0.5 11 71
- 1.38 6 7 cbr 1000 ------- 0 6.0 0.5 11 71
r 1.383 7 0 cbr 1000 ------- 0 3.0 0.2 10 62
- 1.383092 3 7 cbr 1000 ------- 0 3.0 0.2 11 68
r 1.391472 7 0 cbr 1000 ------- 0 3.0 0.2 11 68
r 1.40046 7 0 cbr 1000 ------- 0 5.0 0.4 11 70
r 1.409828 7 0 cbr 1000 ------- 0 6.0 0.5 11 71
r 1.423652 7 0 cbr 1000 ------- 0 4.0 0.3 11 69
r 1.431864 7 0 cbr 1000 ------- 0 2.0 0.1 11 67
r 1.440076 7 0 cbr 1000 ------- 0 1.0 0.0 11 66
h 1.46 1 7 cbr 1000 ------- 0 1.0 0.0 12 72
h 1.46 2 7 cbr 1000 ------- 0 2.0 0.1 12 73
h 1.46 3 7 cbr 1000 ------- 0 3.0 0.2 12 74
h 1.46 4 7 cbr 1000 ------- 0 4.0 0.3 12 75
h 1.46 5 7 cbr 1000 ------- 0 5.0 0.4 12 76
h 1.46 6 7 cbr 1000 ------- 0 6.0 0.5 12 77
+ 1.46 1 7 cbr 1000 ------- 0 1.0 0.0 12 72
- 1.46 1 7 cbr 1000 ------- 0 1.0 0.0 12 72
+ 1.46 2 7 cbr 1000 ------- 0 2.0 0.1 12 73
- 1.46 2 7 cbr 1000 ------- 0 2.0 0.1 12 73
+ 1.46 3 7 cbr 1000 ------- 0 3.0 0.2 12 74
- 1.46 3 7 cbr 1000 ------- 0 3.0 0.2 12 74
+ 1.46 4 7 cbr 1000 ------- 0 4.0 0.3 12 75
- 1.46 4 7 cbr 1000 ------- 0 4.0 0.3 12 75
+ 1.46 5 7 cbr 1000 ------- 0 5.0 0.4 12 76
- 1.46 5 7 cbr 1000 ------- 0 5.0 0.4 12 76
+ 1.46 6 7 cbr 1000 ------- 0 6.0 0.5 12 77
- 1.46 6 7 cbr 1000 ------- 0 6.0 0.5 12 77
r 1.46838 7 0 cbr 1000 ------- 0 5.0 0.4 12 76
r 1.477236 7 0 cbr 1000 ------- 0 4.0 0.3 12 75
r 1.48558 7 0 cbr 1000 ------- 0 1.0 0.0 12 72
r 1.494948 7 0 cbr 1000 ------- 0 3.0 0.2 12 74
r 1.50316 7 0 cbr 1000 ------- 0 2.0 0.1 12 73
r 1.511372 7 0 cbr 1000 ------- 0 6.0 0.5 12 77
h 1.54 1 7 cbr 1000 ------- 0 1.0 0.0 13 78
h 1.54 2 7 cbr 1000 ------- 0 2.0 0.1 13 79
h 1.54 3 7 cbr 1000 ------- 0 3.0 0.2 13 80
h 1.54 4 7 cbr 1000 ------- 0 4.0 0.3 13 81
h 1.54 5 7 cbr 1000 ------- 0 5.0 0.4 13 82
h 1.54 6 7 cbr 1000 ------- 0 6.0 0.5 13 83
+ 1.54 1 7 cbr 1000 ------- 0 1.0 0.0 13 78
- 1.54 1 7 cbr 1000 ------- 0 1.0 0.0 13 78
+ 1.54 2 7 cbr 1000 ------- 0 2.0 0.1 13 79
- 1.54 2 7 cbr 1000 ------- 0 2.0 0.1 13 79
+ 1.54 3 7 cbr 1000 ------- 0 3.0 0.2 13 80
- 1.54 3 7 cbr 1000 ------- 0 3.0 0.2 13 80
+ 1.54 4 7 cbr 1000 ------- 0 4.0 0.3 13 81
- 1.54 4 7 cbr 1000 ------- 0 4.0 0.3 13 81
+ 1.54 5 7 cbr 1000 ------- 0 5.0 0.4 13 82
- 1.54 5 7 cbr 1000 ------- 0 5.0 0.4 13 82
+ 1.54 6 7 cbr 1000 ------- 0 6.0 0.5 13 83
- 1.54 6 7 cbr 1000 ------- 0 6.0 0.5 13 83
r 1.549024 7 0 cbr 1000 ------- 0 3.0 0.2 13 80
r 1.558904 7 0 cbr 1000 ------- 0 1.0 0.0 13 78
r 1.568272 7 0 cbr 1000 ------- 0 4.0 0.3 13 81
r 1.579688 7 0 cbr 1000 ------- 0 5.0 0.4 13 82
r 1.5879 7 0 cbr 1000 ------- 0 6.0 0.5 13 83
r 1.596112 7 0 cbr 1000 ------- 0 2.0 0.1 13 79
h 1.62 1 7 cbr 1000 ------- 0 1.0 0.0 14 84
h 1.62 2 7 cbr 1000 ------- 0 2.0 0.1 14 85
h 1.62 3 7 cbr 1000 ------- 0 3.0 0.2 14 86
h 1.62 4 7 cbr 1000 ------- 0 4.0 0.3 14 87
h 1.62 5 7 cbr 1000 ------- 0 5.0 0.4 14 88
h 1.62 6 7 cbr 1000 ------- 0 6.0 0.5 14 89
+ 1.62 1 7 cbr 1000 ------- 0 1.0 0.0 14 84
- 1.62 1 7 cbr 1000 ------- 0 1.0 0.0 14 84
+ 1.62 2 7 cbr 1000 ------- 0 2.0 0.1 14 85
- 1.62 2 7 cbr 1000 ------- 0 2.0 0.1 14 85
+ 1.62 3 7 cbr 1000 ------- 0 3.0 0.2 14 86
- 1.62 3 7 cbr 1000 ------- 0 3.0 0.2 14 86
+ 1.62 4 7 cbr 1000 ------- 0 4.0 0.3 14 87
- 1.62 4 7 cbr 1000 ------- 0 4.0 0.3 14 87
+ 1.62 5 7 cbr 1000 ------- 0 5.0 0.4 14 88
- 1.62 5 7 cbr 1000 ------- 0 5.0 0.4 14 88
+ 1.62 6 7 cbr 1000 ------- 0 6.0 0.5 14 89
- 1.62 6 7 cbr 1000 ------- 0 6.0 0.5 14 89
r 1.62838 7 0 cbr 1000 ------- 0 2.0 0.1 14 85
r 1.636724 7 0 cbr 1000 ------- 0 6.0 0.5 14 89
r 1.64558 7 0 cbr 1000 ------- 0 4.0 0.3 14 87
r 1.653924 7 0 cbr 1000 ------- 0 5.0 0.4 14 88
r 1.662136 7 0 cbr 1000 ------- 0 1.0 0.0 14 84
r 1.670348 7 0 cbr 1000 ------- 0 3.0 0.2 14 86
h 1.7 1 7 cbr 1000 ------- 0 1.0 0.0 15 90
h 1.7 2 7 cbr 1000 ------- 0 2.0 0.1 15 91
h 1.7 3 7 cbr 1000 ------- 0 3.0 0.2 15 92
h 1.7 4 7 cbr 1000 ------- 0 4.0 0.3 15 93
h 1.7 5 7 cbr 1000 ------- 0 5.0 0.4 15 94
h 1.7 6 7 cbr 1000 ------- 0 6.0 0.5 15 95
+ 1.7 1 7 cbr 1000 ------- 0 1.0 0.0 15 90
- 1.7 1 7 cbr 1000 ------- 0 1.0 0.0 15 90
+ 1.7 2 7 cbr 1000 ------- 0 2.0 0.1 15 91
- 1.7 2 7 cbr 1000 ------- 0 2.0 0.1 15 91
+ 1.7 3 7 cbr 1000 ------- 0 3.0 0.2 15 92
- 1.7 3 7 cbr 1000 ------- 0 3.0 0.2 15 92
+ 1.7 4 7 cbr 1000 ------- 0 4.0 0.3 15 93
- 1.7 4 7 cbr 1000 ------- 0 4.0 0.3 15 93
+ 1.7 5 7 cbr 1000 ------- 0 5.0 0.4 15 94
- 1.7 5 7 cbr 1000 ------- 0 5.0 0.4 15 94
+ 1.7 6 7 cbr 1000 ------- 0 6.0 0.5 15 95
- 1.7 6 7 cbr 1000 ------- 0 6.0 0.5 15 95
r 1.70876 7 0 cbr 1000 ------- 0 1.0 0.0 15 90
r 1.718128 7 0 cbr 1000 ------- 0 3.0 0.2 15 92
r 1.727496 7 0 cbr 1000 ------- 0 6.0 0.5 15 95
r 1.73876 7 0 cbr 1000 ------- 0 2.0 0.1 15 91
r 1.74864 7 0 cbr 1000 ------- 0 5.0 0.4 15 94
r 1.756852 7 0 cbr 1000 ------- 0 4.0 0.3 15 93
h 1.78 1 7 cbr 1000 ------- 0 1.0 0.0 16 96
h 1.78 2 7 cbr 1000 ------- 0 2.0 0.1 16 97
h 1.78 3 7 cbr 1000 ------- 0 3.0 0.2 16 98
h 1.78 4 7 cbr 1000 ------- 0 4.0 0.3 16 99
h 1.78 5 7 cbr 1000 ------- 0 5.0 0.4 16 100
h 1.78 6 7 cbr 1000 ------- 0 6.0 0.5 16 101
+ 1.78 1 7 cbr 1000 ------- 0 1.0 0.0 16 96
- 1.78 1 7 cbr 1000 ------- 0 1.0 0.0 16 96
+ 1.78 2 7 cbr 1000 ------- 0 2.0 0.1 16 97
- 1.78 2 7 cbr 1000 ------- 0 2.0 0.1 16 97
+ 1.78 3 7 cbr 1000 ------- 0 3.0 0.2 16 98
- 1.78 3 7 cbr 1000 ------- 0 3.0 0.2 16 98
+ 1.78 4 7 cbr 1000 ------- 0 4.0 0.3 16 99
- 1.78 4 7 cbr 1000 ------- 0 4.0 0.3 16 99
+ 1.78 5 7 cbr 1000 ------- 0 5.0 0.4 16 100
- 1.78 5 7 cbr 1000 ------- 0 5.0 0.4 16 100
+ 1.78 6 7 cbr 1000 ------- 0 6.0 0.5 16 101
- 1.78 6 7 cbr 1000 ------- 0 6.0 0.5 16 101
r 1.78876 7 0 cbr 1000 ------- 0 1.0 0.0 16 96
r 1.798128 7 0 cbr 1000 ------- 0 5.0 0.4 16 100
r 1.806984 7 0 cbr 1000 ------- 0 2.0 0.1 16 97
r 1.8184 7 0 cbr 1000 ------- 0 4.0 0.3 16 99
r 1.826612 7 0 cbr 1000 ------- 0 6.0 0.5 16 101
r 1.834824 7 0 cbr 1000 ------- 0 3.0 0.2 16 98
h 1.86 1 7 cbr 1000 ------- 0 1.0 0.0 17 102
h 1.86 2 7 cbr 1000 ------- 0 2.0 0.1 17 103
h 1.86 3 7 cbr 1000 ------- 0 3.0 0.2 17 104
h 1.86 4 7 cbr 1000 ------- 0 4.0 0.3 17 105
h 1.86 5 7 cbr 1000 ------- 0 5.0 0.4 17 106
h 1.86 6 7 cbr 1000 ------- 0 6.0 0.5 17 107
+ 1.86 1 7 cbr 1000 ------- 0 1.0 0.0 17 102
- 1.86 1 7 cbr 1000 ------- 0 1.0 0.0 17 102
+ 1.86 2 7 cbr 1000 ------- 0 2.0 0.1 17 103
- 1.86 2 7 cbr 1000 ------- 0 2.0 0.1 17 103
+ 1.86 3 7 cbr 1000 ------- 0 3.0 0.2 17 104
- 1.86 3 7 cbr 1000 ------- 0 3.0 0.2 17 104
+ 1.86 4 7 cbr 1000 ------- 0 4.0 0.3 17 105
- 1.86 4 7 cbr 1000 ------- 0 4.0 0.3 17 105
+ 1.86 5 7 cbr 1000 ------- 0 5.0 0.4 17 106
- 1.86 5 7 cbr 1000 ------- 0 5.0 0.4 17 106
+ 1.86 6 7 cbr 1000 ------- 0 6.0 0.5 17 107
- 1.86 6 7 cbr 1000 ------- 0 6.0 0.5 17 107
r 1.868892 7 0 cbr 1000 ------- 0 6.0 0.5 17 107
r 1.877236 7 0 cbr 1000 ------- 0 4.0 0.3 17 105
r 1.888652 7 0 cbr 1000 ------- 0 3.0 0.2 17 104
r 1.896996 7 0 cbr 1000 ------- 0 2.0 0.1 17 103
r 1.906212 7 0 cbr 1000 ------- 0 5.0 0.4 17 106
r 1.914424 7 0 cbr 1000 ------- 0 1.0 0.0 17 102
h 1.94 1 7 cbr 1000 ------- 0 1.0 0.0 18 108
h 1.94 2 7 cbr 1000 ------- 0 2.0 0.1 18 109
h 1.94 3 7 cbr 1000 ------- 0 3.0 0.2 18 110
h 1.94 4 7 cbr 1000 ------- 0 4.0 0.3 18 111
h 1.94 5 7 cbr 1000 ------- 0 5.0 0.4 18 112
h 1.94 6 7 cbr 1000 ------- 0 6.0 0.5 18 113
+ 1.94 1 7 cbr 1000 ------- 0 1.0 0.0 18 108
- 1.94 1 7 cbr 1000 ------- 0 1.0 0.0 18 108
+ 1.94 2 7 cbr 1000 ------- 0 2.0 0.1 18 109
- 1.94 2 7 cbr 1000 ------- 0 2.0 0.1 18 109
+ 1.94 3 7 cbr 1000 ------- 0 3.0 0.2 18 110
- 1.94 3 7 cbr 1000 ------- 0 3.0 0.2 18 110
+ 1.94 4 7 cbr 1000 ------- 0 4.0 0.3 18 111
- 1.94 4 7 cbr 1000 ------- 0 4.0 0.3 18 111
+ 1.94 5 7 cbr 1000 ------- 0 5.0 0.4 18 112
- 1.94 5 7 cbr 1000 ------- 0 5.0 0.4 18 112
+ 1.94 6 7 cbr 1000 ------- 0 6.0 0.5 18 113
- 1.94 6 7 cbr 1000 ------- 0 6.0 0.5 18 113
r 1.94838 7 0 cbr 1000 ------- 0 5.0 0.4 18 112
r 1.956724 7 0 cbr 1000 ------- 0 3.0 0.2 18 110
r 1.967116 7 0 cbr 1000 ------- 0 2.0 0.1 18 109
r 1.975328 7 0 cbr 1000 ------- 0 4.0 0.3 18 111
r 2.005688 7 0 cbr 1000 ------- 0 1.0 0.0 18 108
r 2.0139 7 0 cbr 1000 ------- 0 6.0 0.5 18 113
h 2.02 1 7 cbr 1000 ------- 0 1.0 0.0 19 114
h 2.02 2 7 cbr 1000 ------- 0 2.0 0.1 19 115
h 2.02 3 7 cbr 1000 ------- 0 3.0 0.2 19 116
h 2.02 4 7 cbr 1000 ------- 0 4.0 0.3 19 117
h 2.02 5 7 cbr 1000 ------- 0 5.0 0.4 19 118
h 2.02 6 7 cbr 1000 ------- 0 6.0 0.5 19 119
+ 2.02 1 7 cbr 1000 ------- 0 1.0 0.0 19 114
- 2.02 1 7 cbr 1000 ------- 0 1.0 0.0 19 114
+ 2.02 2 7 cbr 1000 ------- 0 2.0 0.1 19 115
- 2.02 2 7 cbr 1000 ------- 0 2.0 0.1 19 115
+ 2.02 3 7 cbr 1000 ------- 0 3.0 0.2 19 116
- 2.02 3 7 cbr 1000 ------- 0 3.0 0.2 19 116
+ 2.02 4 7 cbr 1000 ------- 0 4.0 0.3 19 117
- 2.02 4 7 cbr 1000 ------- 0 4.0 0.3 19 117
+ 2.02 5 7 cbr 1000 ------- 0 5.0 0.4 19 118
- 2.02 5 7 cbr 1000 ------- 0 5.0 0.4 19 118
+ 2.02 6 7 cbr 1000 ------- 0 6.0 0.5 19 119
- 2.02 6 7 cbr 1000 ------- 0 6.0 0.5 19 119
r 2.02838 7 0 cbr 1000 ------- 0 5.0 0.4 19 118
r 2.037236 7 0 cbr 1000 ------- 0 3.0 0.2 19 116
r 2.04558 7 0 cbr 1000 ------- 0 1.0 0.0 19 114
r 2.054948 7 0 cbr 1000 ------- 0 6.0 0.5 19 119
r 2.06316 7 0 cbr 1000 ------- 0 2.0 0.1 19 115
r 2.071372 7 0 cbr 1000 ------- 0 4.0 0.3 19 117
h 2.1 1 7 cbr 1000 ------- 0 1.0 0.0 20 120
h 2.1 2 7 cbr 1000 ------- 0 2.0 0.1 20 121
h 2.1 3 7 cbr 1000 ------- 0 3.0 0.2 20 122
h 2.1 4 7 cbr 1000 ------- 0 4.0 0.3 20 123
h 2.1 5 7 cbr 1000 ------- 0 5.0 0.4 20 124
h 2.1 6 7 cbr 1000 ------- 0 6.0 0.5 20 125
+ 2.1 1 7 cbr 1000 ------- 0 1.0 0.0 20 120
- 2.1 1 7 cbr 1000 ------- 0 1.0 0.0 20 120
+ 2.1 2 7 cbr 1000 ------- 0 2.0 0.1 20 121
- 2.1 2 7 cbr 1000 ------- 0 2.0 0.1 20 121
+ 2.1 3 7 cbr 1000 ------- 0 3.0 0.2 20 122
- 2.1 3 7 cbr 1000 ------- 0 3.0 0.2 20 122
+ 2.1 4 7 cbr 1000 ------- 0 4.0 0.3 20 123
- 2.1 4 7 cbr 1000 ------- 0 4.0 0.3 20 123
+ 2.1 5 7 cbr 1000 ------- 0 5.0 0.4 20 124
- 2.1 5 7 cbr 1000 ------- 0 5.0 0.4 20 124
+ 2.1 6 7 cbr 1000 ------- 0 6.0 0.5 20 125
- 2.1 6 7 cbr 1000 ------- 0 6.0 0.5 20 125
r 2.109024 7 0 cbr 1000 ------- 0 2.0 0.1 20 121
r 2.117368 7 0 cbr 1000 ------- 0 4.0 0.3 20 123
r 2.131344 7 0 cbr 1000 ------- 0 5.0 0.4 20 124
r 2.146344 7 0 cbr 1000 ------- 0 6.0 0.5 20 125
r 2.154556 7 0 cbr 1000 ------- 0 3.0 0.2 20 122
r 2.162768 7 0 cbr 1000 ------- 0 1.0 0.0 20 120
h 2.18 1 7 cbr 1000 ------- 0 1.0 0.0 21 126
h 2.18 2 7 cbr 1000 ------- 0 2.0 0.1 21 127
h 2.18 3 7 cbr 1000 ------- 0 3.0 0.2 21 128
h 2.18 4 7 cbr 1000 ------- 0 4.0 0.3 21 129
h 2.18 5 7 cbr 1000 ------- 0 5.0 0.4 21 130
h 2.18 6 7 cbr 1000 ------- 0 6.0 0.5 21 131
+ 2.18 1 7 cbr 1000 ------- 0 1.0 0.0 21 126
- 2.18 1 7 cbr 1000 ------- 0 1.0 0.0 21 126
+ 2.18 2 7 cbr 1000 ------- 0 2.0 0.1 21 127
- 2.18 2 7 cbr 1000 ------- 0 2.0 0.1 21 127
+ 2.18 3 7 cbr 1000 ------- 0 3.0 0.2 21 128
- 2.18 3 7 cbr 1000 ------- 0 3.0 0.2 21 128
+ 2.18 4 7 cbr 1000 ------- 0 4.0 0.3 21 129
- 2.18 4 7 cbr 1000 ------- 0 4.0 0.3 21 129
+ 2.18 5 7 cbr 1000 ------- 0 5.0 0.4 21 130
- 2.18 5 7 cbr 1000 ------- 0 5.0 0.4 21 130
+ 2.18 6 7 cbr 1000 ------- 0 6.0 0.5 21 131
- 2.18 6 7 cbr 1000 ------- 0 6.0 0.5 21 131
r 2.18876 7 0 cbr 1000 ------- 0 3.0 0.2 21 128
r 2.197104 7 0 cbr 1000 ------- 0 1.0 0.0 21 126
r 2.209544 7 0 cbr 1000 ------- 0 6.0 0.5 21 131
r 2.22096 7 0 cbr 1000 ------- 0 4.0 0.3 21 129
r 2.242616 7 0 cbr 1000 ------- 0 2.0 0.1 21 127
r 2.250828 7 0 cbr 1000 ------- 0 5.0 0.4 21 130
h 2.26 1 7 cbr 1000 ------- 0 1.0 0.0 22 132
h 2.26 2 7 cbr 1000 ------- 0 2.0 0.1 22 133
h 2.26 3 7 cbr 1000 ------- 0 3.0 0.2 22 134
h 2.26 4 7 cbr 1000 ------- 0 4.0 0.3 22 135
h 2.26 5 7 cbr 1000 ------- 0 5.0 0.4 22 136
h 2.26 6 7 cbr 1000 ------- 0 6.0 0.5 22 137
+ 2.26 1 7 cbr 1000 ------- 0 1.0 0.0 22 132
- 2.26 1 7 cbr 1000 ------- 0 1.0 0.0 22 132
+ 2.26 2 7 cbr 1000 ------- 0 2.0 0.1 22 133
- 2.26 2 7 cbr 1000 ------- 0 2.0 0.1 22 133
+ 2.26 3 7 cbr 1000 ------- 0 3.0 0.2 22 134
- 2.26 3 7 cbr 1000 ------- 0 3.0 0.2 22 134
+ 2.26 4 7 cbr 1000 ------- 0 4.0 0.3 22 135
- 2.26 4 7 cbr 1000 ------- 0 4.0 0.3 22 135
+ 2.26 5 7 cbr 1000 ------- 0 5.0 0.4 22 136
- 2.26 5 7 cbr 1000 ------- 0 5.0 0.4 22 136
+ 2.26 6 7 cbr 1000 ------- 0 6.0 0.5 22 137
- 2.26 6 7 cbr 1000 ------- 0 6.0 0.5 22 137
r 2.269404 7 0 cbr 1000 ------- 0 1.0 0.0 22 132
r 2.27826 7 0 cbr 1000 ------- 0 6.0 0.5 22 137
r 2.287628 7 0 cbr 1000 ------- 0 4.0 0.3 22 135
r 2.299044 7 0 cbr 1000 ------- 0 5.0 0.4 22 136
r 2.309948 7 0 cbr 1000 ------- 0 3.0 0.2 22 134
r 2.33094 7 0 cbr 1000 ------- 0 2.0 0.1 22 133
h 2.34 1 7 cbr 1000 ------- 0 1.0 0.0 23 138
h 2.34 2 7 cbr 1000 ------- 0 2.0 0.1 23 139
h 2.34 3 7 cbr 1000 ------- 0 3.0 0.2 23 140
h 2.34 4 7 cbr 1000 ------- 0 4.0 0.3 23 141
h 2.34 5 7 cbr 1000 ------- 0 5.0 0.4 23 142
h 2.34 6 7 cbr 1000 ------- 0 6.0 0.5 23 143
+ 2.34 1 7 cbr 1000 ------- 0 1.0 0.0 23 138
- 2.34 1 7 cbr 1000 ------- 0 1.0 0.0 23 138
+ 2.34 2 7 cbr 1000 ------- 0 2.0 0.1 23 139
- 2.34 2 7 cbr 1000 ------- 0 2.0 0.1 23 139
+ 2.34 3 7 cbr 1000 ------- 0 3.0 0.2 23 140
- 2.34 3 7 cbr 1000 ------- 0 3.0 0.2 23 140
+ 2.34 4 7 cbr 1000 ------- 0 4.0 0.3 23 141
- 2.34 4 7 cbr 1000 ------- 0 4.0 0.3 23 141
+ 2.34 5 7 cbr 1000 ------- 0 5.0 0.4 23 142
- 2.34 5 7 cbr 1000 ------- 0 5.0 0.4 23 142
+ 2.34 6 7 cbr 1000 ------- 0 6.0 0.5 23 143
- 2.34 6 7 cbr 1000 ------- 0 6.0 0.5 23 143
r 2.348892 7 0 cbr 1000 ------- 0 5.0 0.4 23 142
r 2.358772 7 0 cbr 1000 ------- 0 4.0 0.3 23 141
r 2.369676 7 0 cbr 1000 ------- 0 3.0 0.2 23 140
r 2.379916 7 0 cbr 1000 ------- 0 6.0 0.5 23 143
r 2.40106 7 0 cbr 1000 ------- 0 1.0 0.0 23 138
r 2.409272 7 0 cbr 1000 ------- 0 2.0 0.1 23 139
h 2.42 1 7 cbr 1000 ------- 0 1.0 0.0 24 144
h 2.42 2 7 cbr 1000 ------- 0 2.0 0.1 24 145
h 2.42 3 7 cbr 1000 ------- 0 3.0 0.2 24 146
h 2.42 4 7 cbr 1000 ------- 0 4.0 0.3 24 147
h 2.42 5 7 cbr 1000 ------- 0 5.0 0.4 24 148
h 2.42 6 7 cbr 1000 ------- 0 6.0 0.5 24 149
+ 2.42 1 7 cbr 1000 ------- 0 1.0 0.0 24 144
- 2.42 1 7 cbr 1000 ------- 0 1.0 0.0 24 144
+ 2.42 2 7 cbr 1000 ------- 0 2.0 0.1 24 145
- 2.42 2 7 cbr 1000 ------- 0 2.0 0.1 24 145
+ 2.42 3 7 cbr 1000 ------- 0 3.0 0.2 24 146
- 2.42 3 7 cbr 1000 ------- 0 3.0 0.2 24 146
+ 2.42 4 7 cbr 1000 ------- 0 4.0 0.3 24 147
- 2.42 4 7 cbr 1000 ------- 0 4.0 0.3 24 147
+ 2.42 5 7 cbr 1000 ------- 0 5.0 0.4 24 148
- 2.42 5 7 cbr 1000 ------- 0 5.0 0.4 24 148
+ 2.42 6 7 cbr 1000 ------- 0 6.0 0.5 24 149
- 2.42 6 7 cbr 1000 ------- 0 6.0 0.5 24 149
r 2.42838 7 0 cbr 1000 ------- 0 1.0 0.0 24 144
r 2.436856 7 0 cbr 1000 ------- 0 3.0 0.2 24 146
r 2.4452 7 0 cbr 1000 ------- 0 5.0 0.4 24 148
r 2.453544 7 0 cbr 1000 ------- 0 2.0 0.1 24 145
r 2.462912 7 0 cbr 1000 ------- 0 4.0 0.3 24 147
r 2.47264 7 0 cbr 1000 ------- 0 6.0 0.5 24 149
h 2.5 1 7 cbr 1000 ------- 0 1.0 0.0 25 150
h 2.5 2 7 cbr 1000 ------- 0 2.0 0.1 25 151
h 2.5 3 7 cbr 1000 ------- 0 3.0 0.2 25 152
h 2.5 4 7 cbr 1000 ------- 0 4.0 0.3 25 153
h 2.5 5 7 cbr 1000 ------- 0 5.0 0.4 25 154
h 2.5 6 7 cbr 1000 ------- 0 6.0 0.5 25 155
+ 2.5 1 7 cbr 1000 ------- 0 1.0 0.0 25 150
- 2.5 1 7 cbr 1000 ------- 0 1.0 0.0 25 150
+ 2.5 2 7 cbr 1000 ------- 0 2.0 0.1 25 151
- 2.5 2 7 cbr 1000 ------- 0 2.0 0.1 25 151
+ 2.5 3 7 cbr 1000 ------- 0 3.0 0.2 25 152
- 2.5 3 7 cbr 1000 ------- 0 3.0 0.2 25 152
+ 2.5 4 7 cbr 1000 ------- 0 4.0 0.3 25 153
- 2.5 4 7 cbr 1000 ------- 0 4.0 0.3 25 153
+ 2.5 5 7 cbr 1000 ------- 0 5.0 0.4 25 154
- 2.5 5 7 cbr 1000 ------- 0 5.0 0.4 25 154
+ 2.5 6 7 cbr 1000 ------- 0 6.0 0.5 25 155
- 2.5 6 7 cbr 1000 ------- 0 6.0 0.5 25 155
r 2.508892 7 0 cbr 1000 ------- 0 4.0 0.3 25 153
r 2.517748 7 0 cbr 1000 ------- 0 2.0 0.1 25 151
r 2.529676 7 0 cbr 1000 ------- 0 5.0 0.4 25 154
r 2.538512 7 0 cbr 1000 ------- 0 6.0 0.5 25 155
r 2.548772 7 0 cbr 1000 ------- 0 1.0 0.0 25 150
h 2.58 1 7 cbr 1000 ------- 0 1.0 0.0 26 156
h 2.58 2 7 cbr 1000 ------- 0 2.0 0.1 26 157
h 2.58 3 7 cbr 1000 ------- 0 3.0 0.2 26 158
h 2.58 4 7 cbr 1000 ------- 0 4.0 0.3 26 159
h 2.58 5 7 cbr 1000 ------- 0 5.0 0.4 26 160
h 2.58 6 7 cbr 1000 ------- 0 6.0 0.5 26 161
+ 2.58 1 7 cbr 1000 ------- 0 1.0 0.0 26 156
- 2.58 1 7 cbr 1000 ------- 0 1.0 0.0 26 156
+ 2.58 2 7 cbr 1000 ------- 0 2.0 0.1 26 157
- 2.58 2 7 cbr 1000 ------- 0 2.0 0.1 26 157
+ 2.58 3 7 cbr 1000 ------- 0 3.0 0.2 26 158
+ 2.58 4 7 cbr 1000 ------- 0 4.0 0.3 26 159
- 2.58 4 7 cbr 1000 ------- 0 4.0 0.3 26 159
+ 2.58 5 7 cbr 1000 ------- 0 5.0 0.4 26 160
- 2.58 5 7 cbr 1000 ------- 0 5.0 0.4 26 160
+ 2.58 6 7 cbr 1000 ------- 0 6.0 0.5 26 161
- 2.58 6 7 cbr 1000 ------- 0 6.0 0.5 26 161
r 2.588248 7 0 cbr 1000 ------- 0 5.0 0.4 26 160
r 2.596724 7 0 cbr 1000 ------- 0 1.0 0.0 26 156
r 2.606604 7 0 cbr 1000 ------- 0 4.0 0.3 26 159
r 2.621604 7 0 cbr 1000 ------- 0 2.0 0.1 26 157
r 2.635428 7 0 cbr 1000 ------- 0 6.0 0.5 26 161
h 2.66 1 7 cbr 1000 ------- 0 1.0 0.0 27 162
h 2.66 2 7 cbr 1000 ------- 0 2.0 0.1 27 163
h 2.66 3 7 cbr 1000 ------- 0 3.0 0.2 27 164
h 2.66 4 7 cbr 1000 ------- 0 4.0 0.3 27 165
h 2.66 5 7 cbr 1000 ------- 0 5.0 0.4 27 166
h 2.66 6 7 cbr 1000 ------- 0 6.0 0.5 27 167
+ 2.66 1 7 cbr 1000 ------- 0 1.0 0.0 27 162
- 2.66 1 7 cbr 1000 ------- 0 1.0 0.0 27 162
+ 2.66 2 7 cbr 1000 ------- 0 2.0 0.1 27 163
- 2.66 2 7 cbr 1000 ------- 0 2.0 0.1 27 163