h 0.5 1 31 cbr 1000 ------- 0 1.0 0.0 0 0
h 0.5 2 31 cbr 1000 ------- 0 2.0 0.1 0 1
h 0.5 3 31 cbr 1000 ------- 0 3.0 0.2 0 2
h 0.5 4 31 cbr 1000 ------- 0 4.0 0.3 0 3
h 0.5 5 31 cbr 1000 ------- 0 5.0 0.4 0 4
h 0.5 6 31 cbr 1000 ------- 0 6.0 0.5 0 5
h 0.5 7 31 cbr 1000 ------- 0 7.0 0.6 0 6
h 0.5 8 31 cbr 1000 ------- 0 8.0 0.7 0 7
h 0.5 9 31 cbr 1000 ------- 0 9.0 0.8 0 8
h 0.5 10 31 cbr 1000 ------- 0 10.0 0.9 0 9
h 0.5 11 31 cbr 1000 ------- 0 11.0 0.10 0 10
h 0.5 12 31 cbr 1000 ------- 0 12.0 0.11 0 11
h 0.5 13 31 cbr 1000 ------- 0 13.0 0.12 0 12
h 0.5 14 31 cbr 1000 ------- 0 14.0 0.13 0 13
h 0.5 15 31 cbr 1000 ------- 0 15.0 0.14 0 14
h 0.5 16 31 cbr 1000 ------- 0 16.0 0.15 0 15
h 0.5 17 31 cbr 1000 ------- 0 17.0 0.16 0 16
h 0.5 18 31 cbr 1000 ------- 0 18.0 0.17 0 17
h 0.5 19 31 cbr 1000 ------- 0 19.0 0.18 0 18
h 0.5 20 31 cbr 1000 ------- 0 20.0 0.19 0 19
h 0.5 21 31 cbr 1000 ------- 0 21.0 0.20 0 20
h 0.5 22 31 cbr 1000 ------- 0 22.0 0.21 0 21
h 0.5 23 31 cbr 1000 ------- 0 23.0 0.22 0 22
h 0.5 24 31 cbr 1000 ------- 0 24.0 0.23 0 23
h 0.5 25 31 cbr 1000 ------- 0 25.0 0.24 0 24
h 0.5 26 31 cbr 1000 ------- 0 26.0 0.25 0 25
h 0.5 27 31 cbr 1000 ------- 0 27.0 0.26 0 26
h 0.5 28 31 cbr 1000 ------- 0 28.0 0.27 0 27
h 0.5 29 31 cbr 1000 ------- 0 29.0 0.28 0 28
h 0.5 30 31 cbr 1000 ------- 0 30.0 0.29 0 29
+ 0.5 1 31 cbr 1000 ------- 0 1.0 0.0 0 0
- 0.5 1 31 cbr 1000 ------- 0 1.0 0.0 0 0
+ 0.5 2 31 cbr 1000 ------- 0 2.0 0.1 0 1
- 0.5 2 31 cbr 1000 ------- 0 2.0 0.1 0 1
+ 0.5 3 31 cbr 1000 ------- 0 3.0 0.2 0 2
- 0.5 3 31 cbr 1000 ------- 0 3.0 0.2 0 2
+ 0.5 4 31 cbr 1000 ------- 0 4.0 0.3 0 3
- 0.5 4 31 cbr 1000 ------- 0 4.0 0.3 0 3
+ 0.5 5 31 cbr 1000 ------- 0 5.0 0.4 0 4
- 0.5 5 31 cbr 1000 ------- 0 5.0 0.4 0 4
+ 0.5 6 31 cbr 1000 ------- 0 6.0 0.5 0 5
- 0.5 6 31 cbr 1000 ------- 0 6.0 0.5 0 5
+ 0.5 7 31 cbr 1000 ------- 0 7.0 0.6 0 6
- 0.5 7 31 cbr 1000 ------- 0 7.0 0.6 0 6
+ 0.5 8 31 cbr 1000 ------- 0 8.0 0.7 0 7
- 0.5 8 31 cbr 1000 ------- 0 8.0 0.7 0 7
+ 0.5 9 31 cbr 1000 ------- 0 9.0 0.8 0 8
- 0.5 9 31 cbr 1000 ------- 0 9.0 0.8 0 8
+ 0.5 10 31 cbr 1000 ------- 0 10.0 0.9 0 9
- 0.5 10 31 cbr 1000 ------- 0 10.0 0.9 0 9
+ 0.5 11 31 cbr 1000 ------- 0 11.0 0.10 0 10
- 0.5 11 31 cbr 1000 ------- 0 11.0 0.10 0 10
+ 0.5 12 31 cbr 1000 ------- 0 12.0 0.11 0 11
- 0.5 12 31 cbr 1000 ------- 0 12.0 0.11 0 11
+ 0.5 13 31 cbr 1000 ------- 0 13.0 0.12 0 12
- 0.5 13 31 cbr 1000 ------- 0 13.0 0.12 0 12
+ 0.5 14 31 cbr 1000 ------- 0 14.0 0.13 0 13
- 0.5 14 31 cbr 1000 ------- 0 14.0 0.13 0 13
+ 0.5 15 31 cbr 1000 ------- 0 15.0 0.14 0 14
- 0.5 15 31 cbr 1000 ------- 0 15.0 0.14 0 14
+ 0.5 16 31 cbr 1000 ------- 0 16.0 0.15 0 15
- 0.5 16 31 cbr 1000 ------- 0 16.0 0.15 0 15
+ 0.5 17 31 cbr 1000 ------- 0 17.0 0.16 0 16
- 0.5 17 31 cbr 1000 ------- 0 17.0 0.16 0 16
+ 0.5 18 31 cbr 1000 ------- 0 18.0 0.17 0 17
- 0.5 18 31 cbr 1000 ------- 0 18.0 0.17 0 17
+ 0.5 19 31 cbr 1000 ------- 0 19.0 0.18 0 18
- 0.5 19 31 cbr 1000 ------- 0 19.0 0.18 0 18
+ 0.5 20 31 cbr 1000 ------- 0 20.0 0.19 0 19
- 0.5 20 31 cbr 1000 ------- 0 20.0 0.19 0 19
+ 0.5 21 31 cbr 1000 ------- 0 21.0 0.20 0 20
- 0.5 21 31 cbr 1000 ------- 0 21.0 0.20 0 20
+ 0.5 22 31 cbr 1000 ------- 0 22.0 0.21 0 21
- 0.5 22 31 cbr 1000 ------- 0 22.0 0.21 0 21
+ 0.5 23 31 cbr 1000 ------- 0 23.0 0.22 0 22
- 0.5 23 31 cbr 1000 ------- 0 23.0 0.22 0 22
+ 0.5 24 31 cbr 1000 ------- 0 24.0 0.23 0 23
- 0.5 24 31 cbr 1000 ------- 0 24.0 0.23 0 23
+ 0.5 25 31 cbr 1000 ------- 0 25.0 0.24 0 24
- 0.5 25 31 cbr 1000 ------- 0 25.0 0.24 0 24
+ 0.5 26 31 cbr 1000 ------- 0 26.0 0.25 0 25
- 0.5 26 31 cbr 1000 ------- 0 26.0 0.25 0 25
+ 0.5 27 31 cbr 1000 ------- 0 27.0 0.26 0 26
- 0.5 27 31 cbr 1000 ------- 0 27.0 0.26 0 26
+ 0.5 28 31 cbr 1000 ------- 0 28.0 0.27 0 27
- 0.5 28 31 cbr 1000 ------- 0 28.0 0.27 0 27
+ 0.5 29 31 cbr 1000 ------- 0 29.0 0.28 0 28
- 0.5 29 31 cbr 1000 ------- 0 29.0 0.28 0 28
+ 0.5 30 31 cbr 1000 ------- 0 30.0 0.29 0 29
- 0.5 30 31 cbr 1000 ------- 0 30.0 0.29 0 29
r 0.508512 31 0 cbr 1000 ------- 0 19.0 0.18 0 18
r 0.519168 31 0 cbr 1000 ------- 0 27.0 0.26 0 26
r 0.527512 31 0 cbr 1000 ------- 0 7.0 0.6 0 6
r 0.535856 31 0 cbr 1000 ------- 0 21.0 0.20 0 20
r 0.54456 31 0 cbr 1000 ------- 0 8.0 0.7 0 7
r 0.553416 31 0 cbr 1000 ------- 0 26.0 0.25 0 25
r 0.561968 31 0 cbr 1000 ------- 0 13.0 0.12 0 12
r 0.570312 31 0 cbr 1000 ------- 0 20.0 0.19 0 19
r 0.579016 31 0 cbr 1000 ------- 0 6.0 0.5 0 5
h 0.58 1 31 cbr 1000 ------- 0 1.0 0.0 1 30
h 0.58 2 31 cbr 1000 ------- 0 2.0 0.1 1 31
h 0.58 3 31 cbr 1000 ------- 0 3.0 0.2 1 32
h 0.58 4 31 cbr 1000 ------- 0 4.0 0.3 1 33
h 0.58 5 31 cbr 1000 ------- 0 5.0 0.4 1 34
h 0.58 6 31 cbr 1000 ------- 0 6.0 0.5 1 35
h 0.58 7 31 cbr 1000 ------- 0 7.0 0.6 1 36
h 0.58 8 31 cbr 1000 ------- 0 8.0 0.7 1 37
h 0.58 9 31 cbr 1000 ------- 0 9.0 0.8 1 38
h 0.58 10 31 cbr 1000 ------- 0 10.0 0.9 1 39
h 0.58 11 31 cbr 1000 ------- 0 11.0 0.10 1 40
h 0.58 12 31 cbr 1000 ------- 0 12.0 0.11 1 41
h 0.58 13 31 cbr 1000 ------- 0 13.0 0.12 1 42
h 0.58 14 31 cbr 1000 ------- 0 14.0 0.13 1 43
h 0.58 15 31 cbr 1000 ------- 0 15.0 0.14 1 44
h 0.58 16 31 cbr 1000 ------- 0 16.0 0.15 1 45
h 0.58 17 31 cbr 1000 ------- 0 17.0 0.16 1 46
h 0.58 18 31 cbr 1000 ------- 0 18.0 0.17 1 47
h 0.58 19 31 cbr 1000 ------- 0 19.0 0.18 1 48
h 0.58 20 31 cbr 1000 ------- 0 20.0 0.19 1 49
h 0.58 21 31 cbr 1000 ------- 0 21.0 0.20 1 50
h 0.58 22 31 cbr 1000 ------- 0 22.0 0.21 1 51
h 0.58 23 31 cbr 1000 ------- 0 23.0 0.22 1 52
h 0.58 24 31 cbr 1000 ------- 0 24.0 0.23 1 53
h 0.58 25 31 cbr 1000 ------- 0 25.0 0.24 1 54
h 0.58 26 31 cbr 1000 ------- 0 26.0 0.25 1 55
h 0.58 27 31 cbr 1000 ------- 0 27.0 0.26 1 56
h 0.58 28 31 cbr 1000 ------- 0 28.0 0.27 1 57
h 0.58 29 31 cbr 1000 ------- 0 29.0 0.28 1 58
h 0.58 30 31 cbr 1000 ------- 0 30.0 0.29 1 59
+ 0.58 1 31 cbr 1000 ------- 0 1.0 0.0 1 30
+ 0.58 2 31 cbr 1000 ------- 0 2.0 0.1 1 31
+ 0.58 3 31 cbr 1000 ------- 0 3.0 0.2 1 32
+ 0.58 4 31 cbr 1000 ------- 0 4.0 0.3 1 33
+ 0.58 5 31 cbr 1000 ------- 0 5.0 0.4 1 34
+ 0.58 6 31 cbr 1000 ------- 0 6.0 0.5 1 35
- 0.58 6 31 cbr 1000 ------- 0 6.0 0.5 1 35
+ 0.58 7 31 cbr 1000 ------- 0 7.0 0.6 1 36
- 0.58 7 31 cbr 1000 ------- 0 7.0 0.6 1 36
+ 0.58 8 31 cbr 1000 ------- 0 8.0 0.7 1 37
- 0.58 8 31 cbr 1000 ------- 0 8.0 0.7 1 37
+ 0.58 9 31 cbr 1000 ------- 0 9.0 0.8 1 38
+ 0.58 10 31 cbr 1000 ------- 0 10.0 0.9 1 39
+ 0.58 11 31 cbr 1000 ------- 0 11.0 0.10 1 40
+ 0.58 12 31 cbr 1000 ------- 0 12.0 0.11 1 41
+ 0.58 13 31 cbr 1000 ------- 0 13.0 0.12 1 42
- 0.58 13 31 cbr 1000 ------- 0 13.0 0.12 1 42
+ 0.58 14 31 cbr 1000 ------- 0 14.0 0.13 1 43
+ 0.58 15 31 cbr 1000 ------- 0 15.0 0.14 1 44
+ 0.58 16 31 cbr 1000 ------- 0 16.0 0.15 1 45
+ 0.58 17 31 cbr 1000 ------- 0 17.0 0.16 1 46
+ 0.58 18 31 cbr 1000 ------- 0 18.0 0.17 1 47
+ 0.58 19 31 cbr 1000 ------- 0 19.0 0.18 1 48
- 0.58 19 31 cbr 1000 ------- 0 19.0 0.18 1 48
+ 0.58 20 31 cbr 1000 ------- 0 20.0 0.19 1 49
- 0.58 20 31 cbr 1000 ------- 0 20.0 0.19 1 49
+ 0.58 21 31 cbr 1000 ------- 0 21.0 0.20 1 50
- 0.58 21 31 cbr 1000 ------- 0 21.0 0.20 1 50
+ 0.58 22 31 cbr 1000 ------- 0 22.0 0.21 1 51
+ 0.58 23 31 cbr 1000 ------- 0 23.0 0.22 1 52
+ 0.58 24 31 cbr 1000 ------- 0 24.0 0.23 1 53
+ 0.58 25 31 cbr 1000 ------- 0 25.0 0.24 1 54
+ 0.58 26 31 cbr 1000 ------- 0 26.0 0.25 1 55
- 0.58 26 31 cbr 1000 ------- 0 26.0 0.25 1 55
+ 0.58 27 31 cbr 1000 ------- 0 27.0 0.26 1 56
- 0.58 27 31 cbr 1000 ------- 0 27.0 0.26 1 56
+ 0.58 28 31 cbr 1000 ------- 0 28.0 0.27 1 57
+ 0.58 29 31 cbr 1000 ------- 0 29.0 0.28 1 58
+ 0.58 30 31 cbr 1000 ------- 0 30.0 0.29 1 59
r 0.589916 31 0 cbr 1000 ------- 0 6.0 0.5 1 35
r 0.598472 31 0 cbr 1000 ------- 0 2.0 0.1 0 1
- 0.598564 2 31 cbr 1000 ------- 0 2.0 0.1 1 31
r 0.606816 31 0 cbr 1000 ------- 0 2.0 0.1 1 31
r 0.615516 31 0 cbr 1000 ------- 0 21.0 0.20 1 50
r 0.623864 31 0 cbr 1000 ------- 0 26.0 0.25 1 55
r 0.63272 31 0 cbr 1000 ------- 0 8.0 0.7 1 37
r 0.640932 31 0 cbr 1000 ------- 0 19.0 0.18 1 48
r 0.650996 31 0 cbr 1000 ------- 0 25.0 0.24 0 24
- 0.651088 25 31 cbr 1000 ------- 0 25.0 0.24 1 54
r 0.65934 31 0 cbr 1000 ------- 0 25.0 0.24 1 54
h 0.66 1 31 cbr 1000 ------- 0 1.0 0.0 2 60
h 0.66 2 31 cbr 1000 ------- 0 2.0 0.1 2 61
h 0.66 3 31 cbr 1000 ------- 0 3.0 0.2 2 62
h 0.66 4 31 cbr 1000 ------- 0 4.0 0.3 2 63
h 0.66 5 31 cbr 1000 ------- 0 5.0 0.4 2 64
h 0.66 6 31 cbr 1000 ------- 0 6.0 0.5 2 65
h 0.66 7 31 cbr 1000 ------- 0 7.0 0.6 2 66
h 0.66 8 31 cbr 1000 ------- 0 8.0 0.7 2 67
h 0.66 9 31 cbr 1000 ------- 0 9.0 0.8 2 68
h 0.66 10 31 cbr 1000 ------- 0 10.0 0.9 2 69
h 0.66 11 31 cbr 1000 ------- 0 11.0 0.10 2 70
h 0.66 12 31 cbr 1000 ------- 0 12.0 0.11 2 71
h 0.66 13 31 cbr 1000 ------- 0 13.0 0.12 2 72
h 0.66 14 31 cbr 1000 ------- 0 14.0 0.13 2 73
h 0.66 15 31 cbr 1000 ------- 0 15.0 0.14 2 74
h 0.66 16 31 cbr 1000 ------- 0 16.0 0.15 2 75
h 0.66 17 31 cbr 1000 ------- 0 17.0 0.16 2 76
h 0.66 18 31 cbr 1000 ------- 0 18.0 0.17 2 77
h 0.66 19 31 cbr 1000 ------- 0 19.0 0.18 2 78
h 0.66 20 31 cbr 1000 ------- 0 20.0 0.19 2 79
h 0.66 21 31 cbr 1000 ------- 0 21.0 0.20 2 80
h 0.66 22 31 cbr 1000 ------- 0 22.0 0.21 2 81
h 0.66 23 31 cbr 1000 ------- 0 23.0 0.22 2 82
h 0.66 24 31 cbr 1000 ------- 0 24.0 0.23 2 83
h 0.66 25 31 cbr 1000 ------- 0 25.0 0.24 2 84
h 0.66 26 31 cbr 1000 ------- 0 26.0 0.25 2 85
h 0.66 27 31 cbr 1000 ------- 0 27.0 0.26 2 86
h 0.66 28 31 cbr 1000 ------- 0 28.0 0.27 2 87
h 0.66 29 31 cbr 1000 ------- 0 29.0 0.28 2 88
h 0.66 30 31 cbr 1000 ------- 0 30.0 0.29 2 89
+ 0.66 1 31 cbr 1000 ------- 0 1.0 0.0 2 60
+ 0.66 2 31 cbr 1000 ------- 0 2.0 0.1 2 61
- 0.66 2 31 cbr 1000 ------- 0 2.0 0.1 2 61
+ 0.66 3 31 cbr 1000 ------- 0 3.0 0.2 2 62
+ 0.66 4 31 cbr 1000 ------- 0 4.0 0.3 2 63
+ 0.66 5 31 cbr 1000 ------- 0 5.0 0.4 2 64
+ 0.66 6 31 cbr 1000 ------- 0 6.0 0.5 2 65
- 0.66 6 31 cbr 1000 ------- 0 6.0 0.5 2 65
+ 0.66 7 31 cbr 1000 ------- 0 7.0 0.6 2 66
+ 0.66 8 31 cbr 1000 ------- 0 8.0 0.7 2 67
- 0.66 8 31 cbr 1000 ------- 0 8.0 0.7 2 67
+ 0.66 9 31 cbr 1000 ------- 0 9.0 0.8 2 68
+ 0.66 10 31 cbr 1000 ------- 0 10.0 0.9 2 69
+ 0.66 11 31 cbr 1000 ------- 0 11.0 0.10 2 70
+ 0.66 12 31 cbr 1000 ------- 0 12.0 0.11 2 71
+ 0.66 13 31 cbr 1000 ------- 0 13.0 0.12 2 72
+ 0.66 14 31 cbr 1000 ------- 0 14.0 0.13 2 73
+ 0.66 15 31 cbr 1000 ------- 0 15.0 0.14 2 74
+ 0.66 16 31 cbr 1000 ------- 0 16.0 0.15 2 75
+ 0.66 17 31 cbr 1000 ------- 0 17.0 0.16 2 76
+ 0.66 18 31 cbr 1000 ------- 0 18.0 0.17 2 77
+ 0.66 19 31 cbr 1000 ------- 0 19.0 0.18 2 78
- 0.66 19 31 cbr 1000 ------- 0 19.0 0.18 2 78
+ 0.66 20 31 cbr 1000 ------- 0 20.0 0.19 2 79
+ 0.66 21 31 cbr 1000 ------- 0 21.0 0.20 2 80
- 0.66 21 31 cbr 1000 ------- 0 21.0 0.20 2 80
+ 0.66 22 31 cbr 1000 ------- 0 22.0 0.21 2 81
+ 0.66 23 31 cbr 1000 ------- 0 23.0 0.22 2 82
+ 0.66 24 31 cbr 1000 ------- 0 24.0 0.23 2 83
+ 0.66 25 31 cbr 1000 ------- 0 25.0 0.24 2 84
- 0.66 25 31 cbr 1000 ------- 0 25.0 0.24 2 84
+ 0.66 26 31 cbr 1000 ------- 0 26.0 0.25 2 85
- 0.66 26 31 cbr 1000 ------- 0 26.0 0.25 2 85
+ 0.66 27 31 cbr 1000 ------- 0 27.0 0.26 2 86
+ 0.66 28 31 cbr 1000 ------- 0 28.0 0.27 2 87
+ 0.66 29 31 cbr 1000 ------- 0 29.0 0.28 2 88
+ 0.66 30 31 cbr 1000 ------- 0 30.0 0.29 2 89
r 0.667552 31 0 cbr 1000 ------- 0 17.0 0.16 0 16
- 0.667644 17 31 cbr 1000 ------- 0 17.0 0.16 1 46
r 0.676024 31 0 cbr 1000 ------- 0 8.0 0.7 2 67
r 0.684368 31 0 cbr 1000 ------- 0 25.0 0.24 2 84
r 0.692712 31 0 cbr 1000 ------- 0 2.0 0.1 2 61
r 0.701568 31 0 cbr 1000 ------- 0 17.0 0.16 1 46
- 0.70166 17 31 cbr 1000 ------- 0 17.0 0.16 2 76
r 0.71024 31 0 cbr 1000 ------- 0 14.0 0.13 0 13
- 0.710332 14 31 cbr 1000 ------- 0 14.0 0.13 1 43
r 0.718584 31 0 cbr 1000 ------- 0 14.0 0.13 1 43
- 0.718676 14 31 cbr 1000 ------- 0 14.0 0.13 2 73
r 0.72744 31 0 cbr 1000 ------- 0 14.0 0.13 2 73
r 0.736144 31 0 cbr 1000 ------- 0 23.0 0.22 0 22
- 0.736236 23 31 cbr 1000 ------- 0 23.0 0.22 1 52
h 0.74 1 31 cbr 1000 ------- 0 1.0 0.0 3 90
h 0.74 2 31 cbr 1000 ------- 0 2.0 0.1 3 91
h 0.74 3 31 cbr 1000 ------- 0 3.0 0.2 3 92
h 0.74 4 31 cbr 1000 ------- 0 4.0 0.3 3 93
h 0.74 5 31 cbr 1000 ------- 0 5.0 0.4 3 94
h 0.74 6 31 cbr 1000 ------- 0 6.0 0.5 3 95
h 0.74 7 31 cbr 1000 ------- 0 7.0 0.6 3 96
h 0.74 8 31 cbr 1000 ------- 0 8.0 0.7 3 97
h 0.74 9 31 cbr 1000 ------- 0 9.0 0.8 3 98
h 0.74 10 31 cbr 1000 ------- 0 10.0 0.9 3 99
h 0.74 11 31 cbr 1000 ------- 0 11.0 0.10 3 100
h 0.74 12 31 cbr 1000 ------- 0 12.0 0.11 3 101
h 0.74 13 31 cbr 1000 ------- 0 13.0 0.12 3 102
h 0.74 14 31 cbr 1000 ------- 0 14.0 0.13 3 103
h 0.74 15 31 cbr 1000 ------- 0 15.0 0.14 3 104
h 0.74 16 31 cbr 1000 ------- 0 16.0 0.15 3 105
h 0.74 17 31 cbr 1000 ------- 0 17.0 0.16 3 106
h 0.74 18 31 cbr 1000 ------- 0 18.0 0.17 3 107
h 0.74 19 31 cbr 1000 ------- 0 19.0 0.18 3 108
h 0.74 20 31 cbr 1000 ------- 0 20.0 0.19 3 109
h 0.74 21 31 cbr 1000 ------- 0 21.0 0.20 3 110
h 0.74 22 31 cbr 1000 ------- 0 22.0 0.21 3 111
h 0.74 23 31 cbr 1000 ------- 0 23.0 0.22 3 112
h 0.74 24 31 cbr 1000 ------- 0 24.0 0.23 3 113
h 0.74 25 31 cbr 1000 ------- 0 25.0 0.24 3 114
h 0.74 26 31 cbr 1000 ------- 0 26.0 0.25 3 115
h 0.74 27 31 cbr 1000 ------- 0 27.0 0.26 3 116
h 0.74 28 31 cbr 1000 ------- 0 28.0 0.27 3 117
h 0.74 29 31 cbr 1000 ------- 0 29.0 0.28 3 118
h 0.74 30 31 cbr 1000 ------- 0 30.0 0.29 3 119
+ 0.74 1 31 cbr 1000 ------- 0 1.0 0.0 3 90
+ 0.74 2 31 cbr 1000 ------- 0 2.0 0.1 3 91
- 0.74 2 31 cbr 1000 ------- 0 2.0 0.1 3 91
+ 0.74 3 31 cbr 1000 ------- 0 3.0 0.2 3 92
+ 0.74 4 31 cbr 1000 ------- 0 4.0 0.3 3 93
+ 0.74 5 31 cbr 1000 ------- 0 5.0 0.4 3 94
+ 0.74 6 31 cbr 1000 ------- 0 6.0 0.5 3 95
+ 0.74 7 31 cbr 1000 ------- 0 7.0 0.6 3 96
+ 0.74 8 31 cbr 1000 ------- 0 8.0 0.7 3 97
- 0.74 8 31 cbr 1000 ------- 0 8.0 0.7 3 97
+ 0.74 9 31 cbr 1000 ------- 0 9.0 0.8 3 98
+ 0.74 10 31 cbr 1000 ------- 0 10.0 0.9 3 99
+ 0.74 11 31 cbr 1000 ------- 0 11.0 0.10 3 100
+ 0.74 12 31 cbr 1000 ------- 0 12.0 0.11 3 101
+ 0.74 13 31 cbr 1000 ------- 0 13.0 0.12 3 102
+ 0.74 14 31 cbr 1000 ------- 0 14.0 0.13 3 103
- 0.74 14 31 cbr 1000 ------- 0 14.0 0.13 3 103
+ 0.74 15 31 cbr 1000 ------- 0 15.0 0.14 3 104
+ 0.74 16 31 cbr 1000 ------- 0 16.0 0.15 3 105
+ 0.74 17 31 cbr 1000 ------- 0 17.0 0.16 3 106
+ 0.74 18 31 cbr 1000 ------- 0 18.0 0.17 3 107
+ 0.74 19 31 cbr 1000 ------- 0 19.0 0.18 3 108
+ 0.74 20 31 cbr 1000 ------- 0 20.0 0.19 3 109
+ 0.74 21 31 cbr 1000 ------- 0 21.0 0.20 3 110
+ 0.74 22 31 cbr 1000 ------- 0 22.0 0.21 3 111
+ 0.74 23 31 cbr 1000 ------- 0 23.0 0.22 3 112
+ 0.74 24 31 cbr 1000 ------- 0 24.0 0.23 3 113
+ 0.74 25 31 cbr 1000 ------- 0 25.0 0.24 3 114
- 0.74 25 31 cbr 1000 ------- 0 25.0 0.24 3 114
+ 0.74 26 31 cbr 1000 ------- 0 26.0 0.25 3 115
+ 0.74 27 31 cbr 1000 ------- 0 27.0 0.26 3 116
+ 0.74 28 31 cbr 1000 ------- 0 28.0 0.27 3 117
+ 0.74 29 31 cbr 1000 ------- 0 29.0 0.28 3 118
+ 0.74 30 31 cbr 1000 ------- 0 30.0 0.29 3 119
r 0.745 31 0 cbr 1000 ------- 0 23.0 0.22 1 52
- 0.745092 23 31 cbr 1000 ------- 0 23.0 0.22 2 82
r 0.753472 31 0 cbr 1000 ------- 0 14.0 0.13 3 103
r 0.761948 31 0 cbr 1000 ------- 0 8.0 0.7 3 97
r 0.770292 31 0 cbr 1000 ------- 0 13.0 0.12 1 42
- 0.770384 13 31 cbr 1000 ------- 0 13.0 0.12 2 72
r 0.779148 31 0 cbr 1000 ------- 0 13.0 0.12 2 72
- 0.77924 13 31 cbr 1000 ------- 0 13.0 0.12 3 102
r 0.787848 31 0 cbr 1000 ------- 0 23.0 0.22 2 82
- 0.78794 23 31 cbr 1000 ------- 0 23.0 0.22 3 112
r 0.796192 31 0 cbr 1000 ------- 0 23.0 0.22 3 112
r 0.807484 31 0 cbr 1000 ------- 0 18.0 0.17 0 17
- 0.807576 18 31 cbr 1000 ------- 0 18.0 0.17 1 47
r 0.815828 31 0 cbr 1000 ------- 0 18.0 0.17 1 47
- 0.81592 18 31 cbr 1000 ------- 0 18.0 0.17 2 77
h 0.82 1 31 cbr 1000 ------- 0 1.0 0.0 4 120
h 0.82 2 31 cbr 1000 ------- 0 2.0 0.1 4 121
h 0.82 3 31 cbr 1000 ------- 0 3.0 0.2 4 122
h 0.82 4 31 cbr 1000 ------- 0 4.0 0.3 4 123
h 0.82 5 31 cbr 1000 ------- 0 5.0 0.4 4 124
h 0.82 6 31 cbr 1000 ------- 0 6.0 0.5 4 125
h 0.82 7 31 cbr 1000 ------- 0 7.0 0.6 4 126
h 0.82 8 31 cbr 1000 ------- 0 8.0 0.7 4 127
h 0.82 9 31 cbr 1000 ------- 0 9.0 0.8 4 128
h 0.82 10 31 cbr 1000 ------- 0 10.0 0.9 4 129
h 0.82 11 31 cbr 1000 ------- 0 11.0 0.10 4 130
h 0.82 12 31 cbr 1000 ------- 0 12.0 0.11 4 131
h 0.82 13 31 cbr 1000 ------- 0 13.0 0.12 4 132
h 0.82 14 31 cbr 1000 ------- 0 14.0 0.13 4 133
h 0.82 15 31 cbr 1000 ------- 0 15.0 0.14 4 134
h 0.82 16 31 cbr 1000 ------- 0 16.0 0.15 4 135
h 0.82 17 31 cbr 1000 ------- 0 17.0 0.16 4 136
h 0.82 18 31 cbr 1000 ------- 0 18.0 0.17 4 137
h 0.82 19 31 cbr 1000 ------- 0 19.0 0.18 4 138
h 0.82 20 31 cbr 1000 ------- 0 20.0 0.19 4 139
h 0.82 21 31 cbr 1000 ------- 0 21.0 0.20 4 140
h 0.82 22 31 cbr 1000 ------- 0 22.0 0.21 4 141
h 0.82 23 31 cbr 1000 ------- 0 23.0 0.22 4 142
h 0.82 24 31 cbr 1000 ------- 0 24.0 0.23 4 143
h 0.82 25 31 cbr 1000 ------- 0 25.0 0.24 4 144
h 0.82 26 31 cbr 1000 ------- 0 26.0 0.25 4 145
h 0.82 27 31 cbr 1000 ------- 0 27.0 0.26 4 146
h 0.82 28 31 cbr 1000 ------- 0 28.0 0.27 4 147
h 0.82 29 31 cbr 1000 ------- 0 29.0 0.28 4 148
h 0.82 30 31 cbr 1000 ------- 0 30.0 0.29 4 149
+ 0.82 1 31 cbr 1000 ------- 0 1.0 0.0 4 120
+ 0.82 2 31 cbr 1000 ------- 0 2.0 0.1 4 121
+ 0.82 3 31 cbr 1000 ------- 0 3.0 0.2 4 122
+ 0.82 4 31 cbr 1000 ------- 0 4.0 0.3 4 123
+ 0.82 5 31 cbr 1000 ------- 0 5.0 0.4 4 124
+ 0.82 6 31 cbr 1000 ------- 0 6.0 0.5 4 125
+ 0.82 7 31 cbr 1000 ------- 0 7.0 0.6 4 126
+ 0.82 8 31 cbr 1000 ------- 0 8.0 0.7 4 127
- 0.82 8 31 cbr 1000 ------- 0 8.0 0.7 4 127
+ 0.82 9 31 cbr 1000 ------- 0 9.0 0.8 4 128
+ 0.82 10 31 cbr 1000 ------- 0 10.0 0.9 4 129
+ 0.82 11 31 cbr 1000 ------- 0 11.0 0.10 4 130
+ 0.82 12 31 cbr 1000 ------- 0 12.0 0.11 4 131
+ 0.82 13 31 cbr 1000 ------- 0 13.0 0.12 4 132
+ 0.82 14 31 cbr 1000 ------- 0 14.0 0.13 4 133
- 0.82 14 31 cbr 1000 ------- 0 14.0 0.13 4 133
+ 0.82 15 31 cbr 1000 ------- 0 15.0 0.14 4 134
+ 0.82 16 31 cbr 1000 ------- 0 16.0 0.15 4 135
+ 0.82 17 31 cbr 1000 ------- 0 17.0 0.16 4 136
+ 0.82 18 31 cbr 1000 ------- 0 18.0 0.17 4 137
+ 0.82 19 31 cbr 1000 ------- 0 19.0 0.18 4 138
+ 0.82 20 31 cbr 1000 ------- 0 20.0 0.19 4 139
+ 0.82 21 31 cbr 1000 ------- 0 21.0 0.20 4 140
+ 0.82 22 31 cbr 1000 ------- 0 22.0 0.21 4 141
+ 0.82 23 31 cbr 1000 ------- 0 23.0 0.22 4 142
- 0.82 23 31 cbr 1000 ------- 0 23.0 0.22 4 142
+ 0.82 24 31 cbr 1000 ------- 0 24.0 0.23 4 143
+ 0.82 25 31 cbr 1000 ------- 0 25.0 0.24 4 144
+ 0.82 26 31 cbr 1000 ------- 0 26.0 0.25 4 145
+ 0.82 27 31 cbr 1000 ------- 0 27.0 0.26 4 146
+ 0.82 28 31 cbr 1000 ------- 0 28.0 0.27 4 147
+ 0.82 29 31 cbr 1000 ------- 0 29.0 0.28 4 148
+ 0.82 30 31 cbr 1000 ------- 0 30.0 0.29 4 149
r 0.824684 31 0 cbr 1000 ------- 0 18.0 0.17 2 77
- 0.824776 18 31 cbr 1000 ------- 0 18.0 0.17 3 107
r 0.833156 31 0 cbr 1000 ------- 0 14.0 0.13 4 133
r 0.8415 31 0 cbr 1000 ------- 0 18.0 0.17 3 107
- 0.841592 18 31 cbr 1000 ------- 0 18.0 0.17 4 137
r 0.850356 31 0 cbr 1000 ------- 0 18.0 0.17 4 137
r 0.862748 31 0 cbr 1000 ------- 0 19.0 0.18 2 78
- 0.86284 19 31 cbr 1000 ------- 0 19.0 0.18 3 108
r 0.871092 31 0 cbr 1000 ------- 0 23.0 0.22 4 142
r 0.879436 31 0 cbr 1000 ------- 0 19.0 0.18 3 108
- 0.879528 19 31 cbr 1000 ------- 0 19.0 0.18 4 138
r 0.88778 31 0 cbr 1000 ------- 0 19.0 0.18 4 138
r 0.895992 31 0 cbr 1000 ------- 0 6.0 0.5 2 65
- 0.896084 6 31 cbr 1000 ------- 0 6.0 0.5 3 95
h 0.9 1 31 cbr 1000 ------- 0 1.0 0.0 5 150
h 0.9 2 31 cbr 1000 ------- 0 2.0 0.1 5 151
h 0.9 3 31 cbr 1000 ------- 0 3.0 0.2 5 152
h 0.9 4 31 cbr 1000 ------- 0 4.0 0.3 5 153
h 0.9 5 31 cbr 1000 ------- 0 5.0 0.4 5 154
h 0.9 6 31 cbr 1000 ------- 0 6.0 0.5 5 155
h 0.9 7 31 cbr 1000 ------- 0 7.0 0.6 5 156
h 0.9 8 31 cbr 1000 ------- 0 8.0 0.7 5 157
h 0.9 9 31 cbr 1000 ------- 0 9.0 0.8 5 158
h 0.9 10 31 cbr 1000 ------- 0 10.0 0.9 5 159
h 0.9 11 31 cbr 1000 ------- 0 11.0 0.10 5 160
h 0.9 12 31 cbr 1000 ------- 0 12.0 0.11 5 161
h 0.9 13 31 cbr 1000 ------- 0 13.0 0.12 5 162
h 0.9 14 31 cbr 1000 ------- 0 14.0 0.13 5 163
h 0.9 15 31 cbr 1000 ------- 0 15.0 0.14 5 164
h 0.9 16 31 cbr 1000 ------- 0 16.0 0.15 5 165
h 0.9 17 31 cbr 1000 ------- 0 17.0 0.16 5 166
h 0.9 18 31 cbr 1000 ------- 0 18.0 0.17 5 167
h 0.9 19 31 cbr 1000 ------- 0 19.0 0.18 5 168
h 0.9 20 31 cbr 1000 ------- 0 20.0 0.19 5 169
h 0.9 21 31 cbr 1000 ------- 0 21.0 0.20 5 170
h 0.9 22 31 cbr 1000 ------- 0 22.0 0.21 5 171
h 0.9 23 31 cbr 1000 ------- 0 23.0 0.22 5 172
h 0.9 24 31 cbr 1000 ------- 0 24.0 0.23 5 173
h 0.9 25 31 cbr 1000 ------- 0 25.0 0.24 5 174
h 0.9 26 31 cbr 1000 ------- 0 26.0 0.25 5 175
h 0.9 27 31 cbr 1000 ------- 0 27.0 0.26 5 176
h 0.9 28 31 cbr 1000 ------- 0 28.0 0.27 5 177
h 0.9 29 31 cbr 1000 ------- 0 29.0 0.28 5 178
h 0.9 30 31 cbr 1000 ------- 0 30.0 0.29 5 179
+ 0.9 1 31 cbr 1000 ------- 0 1.0 0.0 5 150
+ 0.9 2 31 cbr 1000 ------- 0 2.0 0.1 5 151
+ 0.9 3 31 cbr 1000 ------- 0 3.0 0.2 5 152
+ 0.9 4 31 cbr 1000 ------- 0 4.0 0.3 5 153
+ 0.9 5 31 cbr 1000 ------- 0 5.0 0.4 5 154
+ 0.9 6 31 cbr 1000 ------- 0 6.0 0.5 5 155
+ 0.9 7 31 cbr 1000 ------- 0 7.0 0.6 5 156
+ 0.9 8 31 cbr 1000 ------- 0 8.0 0.7 5 157
+ 0.9 9 31 cbr 1000 ------- 0 9.0 0.8 5 158
+ 0.9 10 31 cbr 1000 ------- 0 10.0 0.9 5 159
+ 0.9 11 31 cbr 1000 ------- 0 11.0 0.10 5 160
+ 0.9 12 31 cbr 1000 ------- 0 12.0 0.11 5 161
+ 0.9 13 31 cbr 1000 ------- 0 13.0 0.12 5 162
+ 0.9 14 31 cbr 1000 ------- 0 14.0 0.13 5 163
- 0.9 14 31 cbr 1000 ------- 0 14.0 0.13 5 163
+ 0.9 15 31 cbr 1000 ------- 0 15.0 0.14 5 164
+ 0.9 16 31 cbr 1000 ------- 0 16.0 0.15 5 165
+ 0.9 17 31 cbr 1000 ------- 0 17.0 0.16 5 166
+ 0.9 18 31 cbr 1000 ------- 0 18.0 0.17 5 167
- 0.9 18 31 cbr 1000 ------- 0 18.0 0.17 5 167
+ 0.9 19 31 cbr 1000 ------- 0 19.0 0.18 5 168
- 0.9 19 31 cbr 1000 ------- 0 19.0 0.18 5 168
+ 0.9 20 31 cbr 1000 ------- 0 20.0 0.19 5 169
+ 0.9 21 31 cbr 1000 ------- 0 21.0 0.20 5 170
+ 0.9 22 31 cbr 1000 ------- 0 22.0 0.21 5 171
+ 0.9 23 31 cbr 1000 ------- 0 23.0 0.22 5 172
- 0.9 23 31 cbr 1000 ------- 0 23.0 0.22 5 172
+ 0.9 24 31 cbr 1000 ------- 0 24.0 0.23 5 173
+ 0.9 25 31 cbr 1000 ------- 0 25.0 0.24 5 174
+ 0.9 26 31 cbr 1000 ------- 0 26.0 0.25 5 175
+ 0.9 27 31 cbr 1000 ------- 0 27.0 0.26 5 176
+ 0.9 28 31 cbr 1000 ------- 0 28.0 0.27 5 177
+ 0.9 29 31 cbr 1000 ------- 0 29.0 0.28 5 178
+ 0.9 30 31 cbr 1000 ------- 0 30.0 0.29 5 179
r 0.904336 31 0 cbr 1000 ------- 0 6.0 0.5 3 95
- 0.904428 6 31 cbr 1000 ------- 0 6.0 0.5 4 125
r 0.912808 31 0 cbr 1000 ------- 0 19.0 0.18 5 168
r 0.921796 31 0 cbr 1000 ------- 0 6.0 0.5 4 125
- 0.921888 6 31 cbr 1000 ------- 0 6.0 0.5 5 155
r 0.930652 31 0 cbr 1000 ------- 0 6.0 0.5 5 155
r 0.939508 31 0 cbr 1000 ------- 0 14.0 0.13 5 163
r 0.956304 31 0 cbr 1000 ------- 0 16.0 0.15 0 15
- 0.956396 16 31 cbr 1000 ------- 0 16.0 0.15 1 45
r 0.96516 31 0 cbr 1000 ------- 0 16.0 0.15 1 45
- 0.965252 16 31 cbr 1000 ------- 0 16.0 0.15 2 75
r 0.973632 31 0 cbr 1000 ------- 0 16.0 0.15 2 75
- 0.973724 16 31 cbr 1000 ------- 0 16.0 0.15 3 105
h 0.98 1 31 cbr 1000 ------- 0 1.0 0.0 6 180
h 0.98 2 31 cbr 1000 ------- 0 2.0 0.1 6 181
h 0.98 3 31 cbr 1000 ------- 0 3.0 0.2 6 182
h 0.98 4 31 cbr 1000 ------- 0 4.0 0.3 6 183
h 0.98 5 31 cbr 1000 ------- 0 5.0 0.4 6 184
h 0.98 6 31 cbr 1000 ------- 0 6.0 0.5 6 185
h 0.98 7 31 cbr 1000 ------- 0 7.0 0.6 6 186
h 0.98 8 31 cbr 1000 ------- 0 8.0 0.7 6 187
h 0.98 9 31 cbr 1000 ------- 0 9.0 0.8 6 188
h 0.98 10 31 cbr 1000 ------- 0 10.0 0.9 6 189
h 0.98 11 31 cbr 1000 ------- 0 11.0 0.10 6 190
h 0.98 12 31 cbr 1000 ------- 0 12.0 0.11 6 191
h 0.98 13 31 cbr 1000 ------- 0 13.0 0.12 6 192
h 0.98 14 31 cbr 1000 ------- 0 14.0 0.13 6 193
h 0.98 15 31 cbr 1000 ------- 0 15.0 0.14 6 194
h 0.98 16 31 cbr 1000 ------- 0 16.0 0.15 6 195
h 0.98 17 31 cbr 1000 ------- 0 17.0 0.16 6 196
h 0.98 18 31 cbr 1000 ------- 0 18.0 0.17 6 197
h 0.98 19 31 cbr 1000 ------- 0 19.0 0.18 6 198
h 0.98 20 31 cbr 1000 ------- 0 20.0 0.19 6 199
h 0.98 21 31 cbr 1000 ------- 0 21.0 0.20 6 200
h 0.98 22 31 cbr 1000 ------- 0 22.0 0.21 6 201
h 0.98 23 31 cbr 1000 ------- 0 23.0 0.22 6 202
h 0.98 24 31 cbr 1000 ------- 0 24.0 0.23 6 203
h 0.98 25 31 cbr 1000 ------- 0 25.0 0.24 6 204
h 0.98 26 31 cbr 1000 ------- 0 26.0 0.25 6 205
h 0.98 27 31 cbr 1000 ------- 0 27.0 0.26 6 206
h 0.98 28 31 cbr 1000 ------- 0 28.0 0.27 6 207
h 0.98 29 31 cbr 1000 ------- 0 29.0 0.28 6 208
h 0.98 30 31 cbr 1000 ------- 0 30.0 0.29 6 209
+ 0.98 1 31 cbr 1000 ------- 0 1.0 0.0 6 180
+ 0.98 2 31 cbr 1000 ------- 0 2.0 0.1 6 181
+ 0.98 3 31 cbr 1000 ------- 0 3.0 0.2 6 182
+ 0.98 4 31 cbr 1000 ------- 0 4.0 0.3 6 183
+ 0.98 5 31 cbr 1000 ------- 0 5.0 0.4 6 184
+ 0.98 6 31 cbr 1000 ------- 0 6.0 0.5 6 185
- 0.98 6 31 cbr 1000 ------- 0 6.0 0.5 6 185
+ 0.98 7 31 cbr 1000 ------- 0 7.0 0.6 6 186
+ 0.98 8 31 cbr 1000 ------- 0 8.0 0.7 6 187
+ 0.98 9 31 cbr 1000 ------- 0 9.0 0.8 6 188
+ 0.98 10 31 cbr 1000 ------- 0 10.0 0.9 6 189
+ 0.98 11 31 cbr 1000 ------- 0 11.0 0.10 6 190
+ 0.98 12 31 cbr 1000 ------- 0 12.0 0.11 6 191
+ 0.98 13 31 cbr 1000 ------- 0 13.0 0.12 6 192
+ 0.98 14 31 cbr 1000 ------- 0 14.0 0.13 6 193
- 0.98 14 31 cbr 1000 ------- 0 14.0 0.13 6 193
+ 0.98 15 31 cbr 1000 ------- 0 15.0 0.14 6 194
+ 0.98 16 31 cbr 1000 ------- 0 16.0 0.15 6 195
+ 0.98 17 31 cbr 1000 ------- 0 17.0 0.16 6 196
+ 0.98 18 31 cbr 1000 ------- 0 18.0 0.17 6 197
+ 0.98 19 31 cbr 1000 ------- 0 19.0 0.18 6 198
- 0.98 19 31 cbr 1000 ------- 0 19.0 0.18 6 198
+ 0.98 20 31 cbr 1000 ------- 0 20.0 0.19 6 199
+ 0.98 21 31 cbr 1000 ------- 0 21.0 0.20 6 200
+ 0.98 22 31 cbr 1000 ------- 0 22.0 0.21 6 201
+ 0.98 23 31 cbr 1000 ------- 0 23.0 0.22 6 202
+ 0.98 24 31 cbr 1000 ------- 0 24.0 0.23 6 203
+ 0.98 25 31 cbr 1000 ------- 0 25.0 0.24 6 204
+ 0.98 26 31 cbr 1000 ------- 0 26.0 0.25 6 205
+ 0.98 27 31 cbr 1000 ------- 0 27.0 0.26 6 206
+ 0.98 28 31 cbr 1000 ------- 0 28.0 0.27 6 207
+ 0.98 29 31 cbr 1000 ------- 0 29.0 0.28 6 208
+ 0.98 30 31 cbr 1000 ------- 0 30.0 0.29 6 209
r 0.982488 31 0 cbr 1000 ------- 0 16.0 0.15 3 105
- 0.98258 16 31 cbr 1000 ------- 0 16.0 0.15 4 135
r 0.99096 31 0 cbr 1000 ------- 0 6.0 0.5 6 185
r 0.999436 31 0 cbr 1000 ------- 0 14.0 0.13 6 193
r 1.008292 31 0 cbr 1000 ------- 0 19.0 0.18 6 198
r 1.029436 31 0 cbr 1000 ------- 0 16.0 0.15 4 135
- 1.029528 16 31 cbr 1000 ------- 0 16.0 0.15 5 165
r 1.037644 31 0 cbr 1000 ------- 0 16.0 0.15 5 165
- 1.037736 16 31 cbr 1000 ------- 0 16.0 0.15 6 195
r 1.045852 31 0 cbr 1000 ------- 0 16.0 0.15 6 195
r 1.054064 31 0 cbr 1000 ------- 0 28.0 0.27 0 27
- 1.054156 28 31 cbr 1000 ------- 0 28.0 0.27 1 57
h 1.06 1 31 cbr 1000 ------- 0 1.0 0.0 7 210
h 1.06 2 31 cbr 1000 ------- 0 2.0 0.1 7 211
h 1.06 3 31 cbr 1000 ------- 0 3.0 0.2 7 212
h 1.06 4 31 cbr 1000 ------- 0 4.0 0.3 7 213
h 1.06 5 31 cbr 1000 ------- 0 5.0 0.4 7 214
h 1.06 6 31 cbr 1000 ------- 0 6.0 0.5 7 215
h 1.06 7 31 cbr 1000 ------- 0 7.0 0.6 7 216
h 1.06 8 31 cbr 1000 ------- 0 8.0 0.7 7 217
h 1.06 9 31 cbr 1000 ------- 0 9.0 0.8 7 218
h 1.06 10 31 cbr 1000 ------- 0 10.0 0.9 7 219
h 1.06 11 31 cbr 1000 ------- 0 11.0 0.10 7 220
h 1.06 12 31 cbr 1000 ------- 0 12.0 0.11 7 221
h 1.06 13 31 cbr 1000 ------- 0 13.0 0.12 7 222
h 1.06 14 31 cbr 1000 ------- 0 14.0 0.13 7 223
h 1.06 15 31 cbr 1000 ------- 0 15.0 0.14 7 224
h 1.06 16 31 cbr 1000 ------- 0 16.0 0.15 7 225
h 1.06 17 31 cbr 1000 ------- 0 17.0 0.16 7 226
h 1.06 18 31 cbr 1000 ------- 0 18.0 0.17 7 227
h 1.06 19 31 cbr 1000 ------- 0 19.0 0.18 7 228
h 1.06 20 31 cbr 1000 ------- 0 20.0 0.19 7 229
h 1.06 21 31 cbr 1000 ------- 0 21.0 0.20 7 230
h 1.06 22 31 cbr 1000 ------- 0 22.0 0.21 7 231
h 1.06 23 31 cbr 1000 ------- 0 23.0 0.22 7 232
h 1.06 24 31 cbr 1000 ------- 0 24.0 0.23 7 233
h 1.06 25 31 cbr 1000 ------- 0 25.0 0.24 7 234
h 1.06 26 31 cbr 1000 ------- 0 26.0 0.25 7 235
h 1.06 27 31 cbr 1000 ------- 0 27.0 0.26 7 236
h 1.06 28 31 cbr 1000 ------- 0 28.0 0.27 7 237
h 1.06 29 31 cbr 1000 ------- 0 29.0 0.28 7 238
h 1.06 30 31 cbr 1000 ------- 0 30.0 0.29 7 239
+ 1.06 1 31 cbr 1000 ------- 0 1.0 0.0 7 210
+ 1.06 2 31 cbr 1000 ------- 0 2.0 0.1 7 211
+ 1.06 3 31 cbr 1000 ------- 0 3.0 0.2 7 212
+ 1.06 4 31 cbr 1000 ------- 0 4.0 0.3 7 213
+ 1.06 5 31 cbr 1000 ------- 0 5.0 0.4 7 214
+ 1.06 6 31 cbr 1000 ------- 0 6.0 0.5 7 215
- 1.06 6 31 cbr 1000 ------- 0 6.0 0.5 7 215
+ 1.06 7 31 cbr 1000 ------- 0 7.0 0.6 7 216
+ 1.06 8 31 cbr 1000 ------- 0 8.0 0.7 7 217
+ 1.06 9 31 cbr 1000 ------- 0 9.0 0.8 7 218
+ 1.06 10 31 cbr 1000 ------- 0 10.0 0.9 7 219
+ 1.06 11 31 cbr 1000 ------- 0 11.0 0.10 7 220
+ 1.06 12 31 cbr 1000 ------- 0 12.0 0.11 7 221
+ 1.06 13 31 cbr 1000 ------- 0 13.0 0.12 7 222
+ 1.06 14 31 cbr 1000 ------- 0 14.0 0.13 7 223
- 1.06 14 31 cbr 1000 ------- 0 14.0 0.13 7 223
+ 1.06 15 31 cbr 1000 ------- 0 15.0 0.14 7 224
+ 1.06 16 31 cbr 1000 ------- 0 16.0 0.15 7 225
- 1.06 16 31 cbr 1000 ------- 0 16.0 0.15 7 225
+ 1.06 17 31 cbr 1000 ------- 0 17.0 0.16 7 226
+ 1.06 18 31 cbr 1000 ------- 0 18.0 0.17 7 227
+ 1.06 19 31 cbr 1000 ------- 0 19.0 0.18 7 228
- 1.06 19 31 cbr 1000 ------- 0 19.0 0.18 7 228
+ 1.06 20 31 cbr 1000 ------- 0 20.0 0.19 7 229
+ 1.06 21 31 cbr 1000 ------- 0 21.0 0.20 7 230
+ 1.06 22 31 cbr 1000 ------- 0 22.0 0.21 7 231
+ 1.06 23 31 cbr 1000 ------- 0 23.0 0.22 7 232
+ 1.06 24 31 cbr 1000 ------- 0 24.0 0.23 7 233
+ 1.06 25 31 cbr 1000 ------- 0 25.0 0.24 7 234
+ 1.06 26 31 cbr 1000 ------- 0 26.0 0.25 7 235