h 0.5 1 51 cbr 1000 ------- 0 1.0 0.0 0 0
h 0.5 2 51 cbr 1000 ------- 0 2.0 0.1 0 1
h 0.5 3 51 cbr 1000 ------- 0 3.0 0.2 0 2
h 0.5 4 51 cbr 1000 ------- 0 4.0 0.3 0 3
h 0.5 5 51 cbr 1000 ------- 0 5.0 0.4 0 4
h 0.5 6 51 cbr 1000 ------- 0 6.0 0.5 0 5
h 0.5 7 51 cbr 1000 ------- 0 7.0 0.6 0 6
h 0.5 8 51 cbr 1000 ------- 0 8.0 0.7 0 7
h 0.5 9 51 cbr 1000 ------- 0 9.0 0.8 0 8
h 0.5 10 51 cbr 1000 ------- 0 10.0 0.9 0 9
h 0.5 11 51 cbr 1000 ------- 0 11.0 0.10 0 10
h 0.5 12 51 cbr 1000 ------- 0 12.0 0.11 0 11
h 0.5 13 51 cbr 1000 ------- 0 13.0 0.12 0 12
h 0.5 14 51 cbr 1000 ------- 0 14.0 0.13 0 13
h 0.5 15 51 cbr 1000 ------- 0 15.0 0.14 0 14
h 0.5 16 51 cbr 1000 ------- 0 16.0 0.15 0 15
h 0.5 17 51 cbr 1000 ------- 0 17.0 0.16 0 16
h 0.5 18 51 cbr 1000 ------- 0 18.0 0.17 0 17
h 0.5 19 51 cbr 1000 ------- 0 19.0 0.18 0 18
h 0.5 20 51 cbr 1000 ------- 0 20.0 0.19 0 19
h 0.5 21 51 cbr 1000 ------- 0 21.0 0.20 0 20
h 0.5 22 51 cbr 1000 ------- 0 22.0 0.21 0 21
h 0.5 23 51 cbr 1000 ------- 0 23.0 0.22 0 22
h 0.5 24 51 cbr 1000 ------- 0 24.0 0.23 0 23
h 0.5 25 51 cbr 1000 ------- 0 25.0 0.24 0 24
h 0.5 26 51 cbr 1000 ------- 0 26.0 0.25 0 25
h 0.5 27 51 cbr 1000 ------- 0 27.0 0.26 0 26
h 0.5 28 51 cbr 1000 ------- 0 28.0 0.27 0 27
h 0.5 29 51 cbr 1000 ------- 0 29.0 0.28 0 28
h 0.5 30 51 cbr 1000 ------- 0 30.0 0.29 0 29
h 0.5 31 51 cbr 1000 ------- 0 31.0 0.30 0 30
h 0.5 32 51 cbr 1000 ------- 0 32.0 0.31 0 31
h 0.5 33 51 cbr 1000 ------- 0 33.0 0.32 0 32
h 0.5 34 51 cbr 1000 ------- 0 34.0 0.33 0 33
h 0.5 35 51 cbr 1000 ------- 0 35.0 0.34 0 34
h 0.5 36 51 cbr 1000 ------- 0 36.0 0.35 0 35
h 0.5 37 51 cbr 1000 ------- 0 37.0 0.36 0 36
h 0.5 38 51 cbr 1000 ------- 0 38.0 0.37 0 37
h 0.5 39 51 cbr 1000 ------- 0 39.0 0.38 0 38
h 0.5 40 51 cbr 1000 ------- 0 40.0 0.39 0 39
h 0.5 41 51 cbr 1000 ------- 0 41.0 0.40 0 40
h 0.5 42 51 cbr 1000 ------- 0 42.0 0.41 0 41
h 0.5 43 51 cbr 1000 ------- 0 43.0 0.42 0 42
h 0.5 44 51 cbr 1000 ------- 0 44.0 0.43 0 43
h 0.5 45 51 cbr 1000 ------- 0 45.0 0.44 0 44
h 0.5 46 51 cbr 1000 ------- 0 46.0 0.45 0 45
h 0.5 47 51 cbr 1000 ------- 0 47.0 0.46 0 46
h 0.5 48 51 cbr 1000 ------- 0 48.0 0.47 0 47
h 0.5 49 51 cbr 1000 ------- 0 49.0 0.48 0 48
h 0.5 50 51 cbr 1000 ------- 0 50.0 0.49 0 49
+ 0.5 1 51 cbr 1000 ------- 0 1.0 0.0 0 0
- 0.5 1 51 cbr 1000 ------- 0 1.0 0.0 0 0
+ 0.5 2 51 cbr 1000 ------- 0 2.0 0.1 0 1
- 0.5 2 51 cbr 1000 ------- 0 2.0 0.1 0 1
+ 0.5 3 51 cbr 1000 ------- 0 3.0 0.2 0 2
- 0.5 3 51 cbr 1000 ------- 0 3.0 0.2 0 2
+ 0.5 4 51 cbr 1000 ------- 0 4.0 0.3 0 3
- 0.5 4 51 cbr 1000 ------- 0 4.0 0.3 0 3
+ 0.5 5 51 cbr 1000 ------- 0 5.0 0.4 0 4
- 0.5 5 51 cbr 1000 ------- 0 5.0 0.4 0 4
+ 0.5 6 51 cbr 1000 ------- 0 6.0 0.5 0 5
- 0.5 6 51 cbr 1000 ------- 0 6.0 0.5 0 5
+ 0.5 7 51 cbr 1000 ------- 0 7.0 0.6 0 6
- 0.5 7 51 cbr 1000 ------- 0 7.0 0.6 0 6
+ 0.5 8 51 cbr 1000 ------- 0 8.0 0.7 0 7
- 0.5 8 51 cbr 1000 ------- 0 8.0 0.7 0 7
+ 0.5 9 51 cbr 1000 ------- 0 9.0 0.8 0 8
- 0.5 9 51 cbr 1000 ------- 0 9.0 0.8 0 8
+ 0.5 10 51 cbr 1000 ------- 0 10.0 0.9 0 9
- 0.5 10 51 cbr 1000 ------- 0 10.0 0.9 0 9
+ 0.5 11 51 cbr 1000 ------- 0 11.0 0.10 0 10
- 0.5 11 51 cbr 1000 ------- 0 11.0 0.10 0 10
+ 0.5 12 51 cbr 1000 ------- 0 12.0 0.11 0 11
- 0.5 12 51 cbr 1000 ------- 0 12.0 0.11 0 11
+ 0.5 13 51 cbr 1000 ------- 0 13.0 0.12 0 12
- 0.5 13 51 cbr 1000 ------- 0 13.0 0.12 0 12
+ 0.5 14 51 cbr 1000 ------- 0 14.0 0.13 0 13
- 0.5 14 51 cbr 1000 ------- 0 14.0 0.13 0 13
+ 0.5 15 51 cbr 1000 ------- 0 15.0 0.14 0 14
- 0.5 15 51 cbr 1000 ------- 0 15.0 0.14 0 14
+ 0.5 16 51 cbr 1000 ------- 0 16.0 0.15 0 15
- 0.5 16 51 cbr 1000 ------- 0 16.0 0.15 0 15
+ 0.5 17 51 cbr 1000 ------- 0 17.0 0.16 0 16
- 0.5 17 51 cbr 1000 ------- 0 17.0 0.16 0 16
+ 0.5 18 51 cbr 1000 ------- 0 18.0 0.17 0 17
- 0.5 18 51 cbr 1000 ------- 0 18.0 0.17 0 17
+ 0.5 19 51 cbr 1000 ------- 0 19.0 0.18 0 18
- 0.5 19 51 cbr 1000 ------- 0 19.0 0.18 0 18
+ 0.5 20 51 cbr 1000 ------- 0 20.0 0.19 0 19
- 0.5 20 51 cbr 1000 ------- 0 20.0 0.19 0 19
+ 0.5 21 51 cbr 1000 ------- 0 21.0 0.20 0 20
- 0.5 21 51 cbr 1000 ------- 0 21.0 0.20 0 20
+ 0.5 22 51 cbr 1000 ------- 0 22.0 0.21 0 21
- 0.5 22 51 cbr 1000 ------- 0 22.0 0.21 0 21
+ 0.5 23 51 cbr 1000 ------- 0 23.0 0.22 0 22
- 0.5 23 51 cbr 1000 ------- 0 23.0 0.22 0 22
+ 0.5 24 51 cbr 1000 ------- 0 24.0 0.23 0 23
- 0.5 24 51 cbr 1000 ------- 0 24.0 0.23 0 23
+ 0.5 25 51 cbr 1000 ------- 0 25.0 0.24 0 24
- 0.5 25 51 cbr 1000 ------- 0 25.0 0.24 0 24
+ 0.5 26 51 cbr 1000 ------- 0 26.0 0.25 0 25
- 0.5 26 51 cbr 1000 ------- 0 26.0 0.25 0 25
+ 0.5 27 51 cbr 1000 ------- 0 27.0 0.26 0 26
- 0.5 27 51 cbr 1000 ------- 0 27.0 0.26 0 26
+ 0.5 28 51 cbr 1000 ------- 0 28.0 0.27 0 27
- 0.5 28 51 cbr 1000 ------- 0 28.0 0.27 0 27
+ 0.5 29 51 cbr 1000 ------- 0 29.0 0.28 0 28
- 0.5 29 51 cbr 1000 ------- 0 29.0 0.28 0 28
+ 0.5 30 51 cbr 1000 ------- 0 30.0 0.29 0 29
- 0.5 30 51 cbr 1000 ------- 0 30.0 0.29 0 29
+ 0.5 31 51 cbr 1000 ------- 0 31.0 0.30 0 30
- 0.5 31 51 cbr 1000 ------- 0 31.0 0.30 0 30
+ 0.5 32 51 cbr 1000 ------- 0 32.0 0.31 0 31
- 0.5 32 51 cbr 1000 ------- 0 32.0 0.31 0 31
+ 0.5 33 51 cbr 1000 ------- 0 33.0 0.32 0 32
- 0.5 33 51 cbr 1000 ------- 0 33.0 0.32 0 32
+ 0.5 34 51 cbr 1000 ------- 0 34.0 0.33 0 33
- 0.5 34 51 cbr 1000 ------- 0 34.0 0.33 0 33
+ 0.5 35 51 cbr 1000 ------- 0 35.0 0.34 0 34
- 0.5 35 51 cbr 1000 ------- 0 35.0 0.34 0 34
+ 0.5 36 51 cbr 1000 ------- 0 36.0 0.35 0 35
- 0.5 36 51 cbr 1000 ------- 0 36.0 0.35 0 35
+ 0.5 37 51 cbr 1000 ------- 0 37.0 0.36 0 36
- 0.5 37 51 cbr 1000 ------- 0 37.0 0.36 0 36
+ 0.5 38 51 cbr 1000 ------- 0 38.0 0.37 0 37
- 0.5 38 51 cbr 1000 ------- 0 38.0 0.37 0 37
+ 0.5 39 51 cbr 1000 ------- 0 39.0 0.38 0 38
- 0.5 39 51 cbr 1000 ------- 0 39.0 0.38 0 38
+ 0.5 40 51 cbr 1000 ------- 0 40.0 0.39 0 39
- 0.5 40 51 cbr 1000 ------- 0 40.0 0.39 0 39
+ 0.5 41 51 cbr 1000 ------- 0 41.0 0.40 0 40
- 0.5 41 51 cbr 1000 ------- 0 41.0 0.40 0 40
+ 0.5 42 51 cbr 1000 ------- 0 42.0 0.41 0 41
- 0.5 42 51 cbr 1000 ------- 0 42.0 0.41 0 41
+ 0.5 43 51 cbr 1000 ------- 0 43.0 0.42 0 42
- 0.5 43 51 cbr 1000 ------- 0 43.0 0.42 0 42
+ 0.5 44 51 cbr 1000 ------- 0 44.0 0.43 0 43
- 0.5 44 51 cbr 1000 ------- 0 44.0 0.43 0 43
+ 0.5 45 51 cbr 1000 ------- 0 45.0 0.44 0 44
- 0.5 45 51 cbr 1000 ------- 0 45.0 0.44 0 44
+ 0.5 46 51 cbr 1000 ------- 0 46.0 0.45 0 45
- 0.5 46 51 cbr 1000 ------- 0 46.0 0.45 0 45
+ 0.5 47 51 cbr 1000 ------- 0 47.0 0.46 0 46
- 0.5 47 51 cbr 1000 ------- 0 47.0 0.46 0 46
+ 0.5 48 51 cbr 1000 ------- 0 48.0 0.47 0 47
- 0.5 48 51 cbr 1000 ------- 0 48.0 0.47 0 47
+ 0.5 49 51 cbr 1000 ------- 0 49.0 0.48 0 48
- 0.5 49 51 cbr 1000 ------- 0 49.0 0.48 0 48
+ 0.5 50 51 cbr 1000 ------- 0 50.0 0.49 0 49
- 0.5 50 51 cbr 1000 ------- 0 50.0 0.49 0 49
r 0.509024 51 0 cbr 1000 ------- 0 40.0 0.39 0 39
r 0.521084 51 0 cbr 1000 ------- 0 32.0 0.31 0 31
r 0.52994 51 0 cbr 1000 ------- 0 19.0 0.18 0 18
r 0.539668 51 0 cbr 1000 ------- 0 33.0 0.32 0 32
r 0.548372 51 0 cbr 1000 ------- 0 36.0 0.35 0 35
r 0.558764 51 0 cbr 1000 ------- 0 49.0 0.48 0 48
r 0.567468 51 0 cbr 1000 ------- 0 23.0 0.22 0 22
r 0.576172 51 0 cbr 1000 ------- 0 1.0 0.0 0 0
h 0.58 1 51 cbr 1000 ------- 0 1.0 0.0 1 50
h 0.58 2 51 cbr 1000 ------- 0 2.0 0.1 1 51
h 0.58 3 51 cbr 1000 ------- 0 3.0 0.2 1 52
h 0.58 4 51 cbr 1000 ------- 0 4.0 0.3 1 53
h 0.58 5 51 cbr 1000 ------- 0 5.0 0.4 1 54
h 0.58 6 51 cbr 1000 ------- 0 6.0 0.5 1 55
h 0.58 7 51 cbr 1000 ------- 0 7.0 0.6 1 56
h 0.58 8 51 cbr 1000 ------- 0 8.0 0.7 1 57
h 0.58 9 51 cbr 1000 ------- 0 9.0 0.8 1 58
h 0.58 10 51 cbr 1000 ------- 0 10.0 0.9 1 59
h 0.58 11 51 cbr 1000 ------- 0 11.0 0.10 1 60
h 0.58 12 51 cbr 1000 ------- 0 12.0 0.11 1 61
h 0.58 13 51 cbr 1000 ------- 0 13.0 0.12 1 62
h 0.58 14 51 cbr 1000 ------- 0 14.0 0.13 1 63
h 0.58 15 51 cbr 1000 ------- 0 15.0 0.14 1 64
h 0.58 16 51 cbr 1000 ------- 0 16.0 0.15 1 65
h 0.58 17 51 cbr 1000 ------- 0 17.0 0.16 1 66
h 0.58 18 51 cbr 1000 ------- 0 18.0 0.17 1 67
h 0.58 19 51 cbr 1000 ------- 0 19.0 0.18 1 68
h 0.58 20 51 cbr 1000 ------- 0 20.0 0.19 1 69
h 0.58 21 51 cbr 1000 ------- 0 21.0 0.20 1 70
h 0.58 22 51 cbr 1000 ------- 0 22.0 0.21 1 71
h 0.58 23 51 cbr 1000 ------- 0 23.0 0.22 1 72
h 0.58 24 51 cbr 1000 ------- 0 24.0 0.23 1 73
h 0.58 25 51 cbr 1000 ------- 0 25.0 0.24 1 74
h 0.58 26 51 cbr 1000 ------- 0 26.0 0.25 1 75
h 0.58 27 51 cbr 1000 ------- 0 27.0 0.26 1 76
h 0.58 28 51 cbr 1000 ------- 0 28.0 0.27 1 77
h 0.58 29 51 cbr 1000 ------- 0 29.0 0.28 1 78
h 0.58 30 51 cbr 1000 ------- 0 30.0 0.29 1 79
h 0.58 31 51 cbr 1000 ------- 0 31.0 0.30 1 80
h 0.58 32 51 cbr 1000 ------- 0 32.0 0.31 1 81
h 0.58 33 51 cbr 1000 ------- 0 33.0 0.32 1 82
h 0.58 34 51 cbr 1000 ------- 0 34.0 0.33 1 83
h 0.58 35 51 cbr 1000 ------- 0 35.0 0.34 1 84
h 0.58 36 51 cbr 1000 ------- 0 36.0 0.35 1 85
h 0.58 37 51 cbr 1000 ------- 0 37.0 0.36 1 86
h 0.58 38 51 cbr 1000 ------- 0 38.0 0.37 1 87
h 0.58 39 51 cbr 1000 ------- 0 39.0 0.38 1 88
h 0.58 40 51 cbr 1000 ------- 0 40.0 0.39 1 89
h 0.58 41 51 cbr 1000 ------- 0 41.0 0.40 1 90
h 0.58 42 51 cbr 1000 ------- 0 42.0 0.41 1 91
h 0.58 43 51 cbr 1000 ------- 0 43.0 0.42 1 92
h 0.58 44 51 cbr 1000 ------- 0 44.0 0.43 1 93
h 0.58 45 51 cbr 1000 ------- 0 45.0 0.44 1 94
h 0.58 46 51 cbr 1000 ------- 0 46.0 0.45 1 95
h 0.58 47 51 cbr 1000 ------- 0 47.0 0.46 1 96
h 0.58 48 51 cbr 1000 ------- 0 48.0 0.47 1 97
h 0.58 49 51 cbr 1000 ------- 0 49.0 0.48 1 98
h 0.58 50 51 cbr 1000 ------- 0 50.0 0.49 1 99
+ 0.58 1 51 cbr 1000 ------- 0 1.0 0.0 1 50
- 0.58 1 51 cbr 1000 ------- 0 1.0 0.0 1 50
+ 0.58 2 51 cbr 1000 ------- 0 2.0 0.1 1 51
+ 0.58 3 51 cbr 1000 ------- 0 3.0 0.2 1 52
+ 0.58 4 51 cbr 1000 ------- 0 4.0 0.3 1 53
+ 0.58 5 51 cbr 1000 ------- 0 5.0 0.4 1 54
+ 0.58 6 51 cbr 1000 ------- 0 6.0 0.5 1 55
+ 0.58 7 51 cbr 1000 ------- 0 7.0 0.6 1 56
+ 0.58 8 51 cbr 1000 ------- 0 8.0 0.7 1 57
+ 0.58 9 51 cbr 1000 ------- 0 9.0 0.8 1 58
+ 0.58 10 51 cbr 1000 ------- 0 10.0 0.9 1 59
+ 0.58 11 51 cbr 1000 ------- 0 11.0 0.10 1 60
+ 0.58 12 51 cbr 1000 ------- 0 12.0 0.11 1 61
+ 0.58 13 51 cbr 1000 ------- 0 13.0 0.12 1 62
+ 0.58 14 51 cbr 1000 ------- 0 14.0 0.13 1 63
+ 0.58 15 51 cbr 1000 ------- 0 15.0 0.14 1 64
+ 0.58 16 51 cbr 1000 ------- 0 16.0 0.15 1 65
+ 0.58 17 51 cbr 1000 ------- 0 17.0 0.16 1 66
+ 0.58 18 51 cbr 1000 ------- 0 18.0 0.17 1 67
+ 0.58 19 51 cbr 1000 ------- 0 19.0 0.18 1 68
- 0.58 19 51 cbr 1000 ------- 0 19.0 0.18 1 68
+ 0.58 20 51 cbr 1000 ------- 0 20.0 0.19 1 69
+ 0.58 21 51 cbr 1000 ------- 0 21.0 0.20 1 70
+ 0.58 22 51 cbr 1000 ------- 0 22.0 0.21 1 71
+ 0.58 23 51 cbr 1000 ------- 0 23.0 0.22 1 72
- 0.58 23 51 cbr 1000 ------- 0 23.0 0.22 1 72
+ 0.58 24 51 cbr 1000 ------- 0 24.0 0.23 1 73
+ 0.58 25 51 cbr 1000 ------- 0 25.0 0.24 1 74
+ 0.58 26 51 cbr 1000 ------- 0 26.0 0.25 1 75
+ 0.58 27 51 cbr 1000 ------- 0 27.0 0.26 1 76
+ 0.58 28 51 cbr 1000 ------- 0 28.0 0.27 1 77
+ 0.58 29 51 cbr 1000 ------- 0 29.0 0.28 1 78
+ 0.58 30 51 cbr 1000 ------- 0 30.0 0.29 1 79
+ 0.58 31 51 cbr 1000 ------- 0 31.0 0.30 1 80
+ 0.58 32 51 cbr 1000 ------- 0 32.0 0.31 1 81
- 0.58 32 51 cbr 1000 ------- 0 32.0 0.31 1 81
+ 0.58 33 51 cbr 1000 ------- 0 33.0 0.32 1 82
- 0.58 33 51 cbr 1000 ------- 0 33.0 0.32 1 82
+ 0.58 34 51 cbr 1000 ------- 0 34.0 0.33 1 83
+ 0.58 35 51 cbr 1000 ------- 0 35.0 0.34 1 84
+ 0.58 36 51 cbr 1000 ------- 0 36.0 0.35 1 85
- 0.58 36 51 cbr 1000 ------- 0 36.0 0.35 1 85
+ 0.58 37 51 cbr 1000 ------- 0 37.0 0.36 1 86
+ 0.58 38 51 cbr 1000 ------- 0 38.0 0.37 1 87
+ 0.58 39 51 cbr 1000 ------- 0 39.0 0.38 1 88
+ 0.58 40 51 cbr 1000 ------- 0 40.0 0.39 1 89
- 0.58 40 51 cbr 1000 ------- 0 40.0 0.39 1 89
+ 0.58 41 51 cbr 1000 ------- 0 41.0 0.40 1 90
+ 0.58 42 51 cbr 1000 ------- 0 42.0 0.41 1 91
+ 0.58 43 51 cbr 1000 ------- 0 43.0 0.42 1 92
+ 0.58 44 51 cbr 1000 ------- 0 44.0 0.43 1 93
+ 0.58 45 51 cbr 1000 ------- 0 45.0 0.44 1 94
+ 0.58 46 51 cbr 1000 ------- 0 46.0 0.45 1 95
+ 0.58 47 51 cbr 1000 ------- 0 47.0 0.46 1 96
+ 0.58 48 51 cbr 1000 ------- 0 48.0 0.47 1 97
+ 0.58 49 51 cbr 1000 ------- 0 49.0 0.48 1 98
- 0.58 49 51 cbr 1000 ------- 0 49.0 0.48 1 98
+ 0.58 50 51 cbr 1000 ------- 0 50.0 0.49 1 99
r 0.586564 51 0 cbr 1000 ------- 0 9.0 0.8 0 8
- 0.586656 9 51 cbr 1000 ------- 0 9.0 0.8 1 58
r 0.595548 51 0 cbr 1000 ------- 0 23.0 0.22 1 72
r 0.603892 51 0 cbr 1000 ------- 0 33.0 0.32 1 82
r 0.613036 51 0 cbr 1000 ------- 0 10.0 0.9 0 9
- 0.613128 10 51 cbr 1000 ------- 0 10.0 0.9 1 59
r 0.621376 51 0 cbr 1000 ------- 0 36.0 0.35 1 85
r 0.630232 51 0 cbr 1000 ------- 0 10.0 0.9 1 59
r 0.638788 51 0 cbr 1000 ------- 0 44.0 0.43 0 43
- 0.63888 44 51 cbr 1000 ------- 0 44.0 0.43 1 93
r 0.647132 51 0 cbr 1000 ------- 0 44.0 0.43 1 93
r 0.656116 51 0 cbr 1000 ------- 0 17.0 0.16 0 16
- 0.656208 17 51 cbr 1000 ------- 0 17.0 0.16 1 66
h 0.66 1 51 cbr 1000 ------- 0 1.0 0.0 2 100
h 0.66 2 51 cbr 1000 ------- 0 2.0 0.1 2 101
h 0.66 3 51 cbr 1000 ------- 0 3.0 0.2 2 102
h 0.66 4 51 cbr 1000 ------- 0 4.0 0.3 2 103
h 0.66 5 51 cbr 1000 ------- 0 5.0 0.4 2 104
h 0.66 6 51 cbr 1000 ------- 0 6.0 0.5 2 105
h 0.66 7 51 cbr 1000 ------- 0 7.0 0.6 2 106
h 0.66 8 51 cbr 1000 ------- 0 8.0 0.7 2 107
h 0.66 9 51 cbr 1000 ------- 0 9.0 0.8 2 108
h 0.66 10 51 cbr 1000 ------- 0 10.0 0.9 2 109
h 0.66 11 51 cbr 1000 ------- 0 11.0 0.10 2 110
h 0.66 12 51 cbr 1000 ------- 0 12.0 0.11 2 111
h 0.66 13 51 cbr 1000 ------- 0 13.0 0.12 2 112
h 0.66 14 51 cbr 1000 ------- 0 14.0 0.13 2 113
h 0.66 15 51 cbr 1000 ------- 0 15.0 0.14 2 114
h 0.66 16 51 cbr 1000 ------- 0 16.0 0.15 2 115
h 0.66 17 51 cbr 1000 ------- 0 17.0 0.16 2 116
h 0.66 18 51 cbr 1000 ------- 0 18.0 0.17 2 117
h 0.66 19 51 cbr 1000 ------- 0 19.0 0.18 2 118
h 0.66 20 51 cbr 1000 ------- 0 20.0 0.19 2 119
h 0.66 21 51 cbr 1000 ------- 0 21.0 0.20 2 120
h 0.66 22 51 cbr 1000 ------- 0 22.0 0.21 2 121
h 0.66 23 51 cbr 1000 ------- 0 23.0 0.22 2 122
h 0.66 24 51 cbr 1000 ------- 0 24.0 0.23 2 123
h 0.66 25 51 cbr 1000 ------- 0 25.0 0.24 2 124
h 0.66 26 51 cbr 1000 ------- 0 26.0 0.25 2 125
h 0.66 27 51 cbr 1000 ------- 0 27.0 0.26 2 126
h 0.66 28 51 cbr 1000 ------- 0 28.0 0.27 2 127
h 0.66 29 51 cbr 1000 ------- 0 29.0 0.28 2 128
h 0.66 30 51 cbr 1000 ------- 0 30.0 0.29 2 129
h 0.66 31 51 cbr 1000 ------- 0 31.0 0.30 2 130
h 0.66 32 51 cbr 1000 ------- 0 32.0 0.31 2 131
h 0.66 33 51 cbr 1000 ------- 0 33.0 0.32 2 132
h 0.66 34 51 cbr 1000 ------- 0 34.0 0.33 2 133
h 0.66 35 51 cbr 1000 ------- 0 35.0 0.34 2 134
h 0.66 36 51 cbr 1000 ------- 0 36.0 0.35 2 135
h 0.66 37 51 cbr 1000 ------- 0 37.0 0.36 2 136
h 0.66 38 51 cbr 1000 ------- 0 38.0 0.37 2 137
h 0.66 39 51 cbr 1000 ------- 0 39.0 0.38 2 138
h 0.66 40 51 cbr 1000 ------- 0 40.0 0.39 2 139
h 0.66 41 51 cbr 1000 ------- 0 41.0 0.40 2 140
h 0.66 42 51 cbr 1000 ------- 0 42.0 0.41 2 141
h 0.66 43 51 cbr 1000 ------- 0 43.0 0.42 2 142
h 0.66 44 51 cbr 1000 ------- 0 44.0 0.43 2 143
h 0.66 45 51 cbr 1000 ------- 0 45.0 0.44 2 144
h 0.66 46 51 cbr 1000 ------- 0 46.0 0.45 2 145
h 0.66 47 51 cbr 1000 ------- 0 47.0 0.46 2 146
h 0.66 48 51 cbr 1000 ------- 0 48.0 0.47 2 147
h 0.66 49 51 cbr 1000 ------- 0 49.0 0.48 2 148
h 0.66 50 51 cbr 1000 ------- 0 50.0 0.49 2 149
+ 0.66 1 51 cbr 1000 ------- 0 1.0 0.0 2 100
+ 0.66 2 51 cbr 1000 ------- 0 2.0 0.1 2 101
+ 0.66 3 51 cbr 1000 ------- 0 3.0 0.2 2 102
+ 0.66 4 51 cbr 1000 ------- 0 4.0 0.3 2 103
+ 0.66 5 51 cbr 1000 ------- 0 5.0 0.4 2 104
+ 0.66 6 51 cbr 1000 ------- 0 6.0 0.5 2 105
+ 0.66 7 51 cbr 1000 ------- 0 7.0 0.6 2 106
+ 0.66 8 51 cbr 1000 ------- 0 8.0 0.7 2 107
+ 0.66 9 51 cbr 1000 ------- 0 9.0 0.8 2 108
+ 0.66 10 51 cbr 1000 ------- 0 10.0 0.9 2 109
- 0.66 10 51 cbr 1000 ------- 0 10.0 0.9 2 109
+ 0.66 11 51 cbr 1000 ------- 0 11.0 0.10 2 110
+ 0.66 12 51 cbr 1000 ------- 0 12.0 0.11 2 111
+ 0.66 13 51 cbr 1000 ------- 0 13.0 0.12 2 112
+ 0.66 14 51 cbr 1000 ------- 0 14.0 0.13 2 113
+ 0.66 15 51 cbr 1000 ------- 0 15.0 0.14 2 114
+ 0.66 16 51 cbr 1000 ------- 0 16.0 0.15 2 115
+ 0.66 17 51 cbr 1000 ------- 0 17.0 0.16 2 116
+ 0.66 18 51 cbr 1000 ------- 0 18.0 0.17 2 117
+ 0.66 19 51 cbr 1000 ------- 0 19.0 0.18 2 118
+ 0.66 20 51 cbr 1000 ------- 0 20.0 0.19 2 119
+ 0.66 21 51 cbr 1000 ------- 0 21.0 0.20 2 120
+ 0.66 22 51 cbr 1000 ------- 0 22.0 0.21 2 121
+ 0.66 23 51 cbr 1000 ------- 0 23.0 0.22 2 122
- 0.66 23 51 cbr 1000 ------- 0 23.0 0.22 2 122
+ 0.66 24 51 cbr 1000 ------- 0 24.0 0.23 2 123
+ 0.66 25 51 cbr 1000 ------- 0 25.0 0.24 2 124
+ 0.66 26 51 cbr 1000 ------- 0 26.0 0.25 2 125
+ 0.66 27 51 cbr 1000 ------- 0 27.0 0.26 2 126
+ 0.66 28 51 cbr 1000 ------- 0 28.0 0.27 2 127
+ 0.66 29 51 cbr 1000 ------- 0 29.0 0.28 2 128
+ 0.66 30 51 cbr 1000 ------- 0 30.0 0.29 2 129
+ 0.66 31 51 cbr 1000 ------- 0 31.0 0.30 2 130
+ 0.66 32 51 cbr 1000 ------- 0 32.0 0.31 2 131
+ 0.66 33 51 cbr 1000 ------- 0 33.0 0.32 2 132
- 0.66 33 51 cbr 1000 ------- 0 33.0 0.32 2 132
+ 0.66 34 51 cbr 1000 ------- 0 34.0 0.33 2 133
+ 0.66 35 51 cbr 1000 ------- 0 35.0 0.34 2 134
+ 0.66 36 51 cbr 1000 ------- 0 36.0 0.35 2 135
- 0.66 36 51 cbr 1000 ------- 0 36.0 0.35 2 135
+ 0.66 37 51 cbr 1000 ------- 0 37.0 0.36 2 136
+ 0.66 38 51 cbr 1000 ------- 0 38.0 0.37 2 137
+ 0.66 39 51 cbr 1000 ------- 0 39.0 0.38 2 138
+ 0.66 40 51 cbr 1000 ------- 0 40.0 0.39 2 139
+ 0.66 41 51 cbr 1000 ------- 0 41.0 0.40 2 140
+ 0.66 42 51 cbr 1000 ------- 0 42.0 0.41 2 141
+ 0.66 43 51 cbr 1000 ------- 0 43.0 0.42 2 142
+ 0.66 44 51 cbr 1000 ------- 0 44.0 0.43 2 143
- 0.66 44 51 cbr 1000 ------- 0 44.0 0.43 2 143
+ 0.66 45 51 cbr 1000 ------- 0 45.0 0.44 2 144
+ 0.66 46 51 cbr 1000 ------- 0 46.0 0.45 2 145
+ 0.66 47 51 cbr 1000 ------- 0 47.0 0.46 2 146
+ 0.66 48 51 cbr 1000 ------- 0 48.0 0.47 2 147
+ 0.66 49 51 cbr 1000 ------- 0 49.0 0.48 2 148
+ 0.66 50 51 cbr 1000 ------- 0 50.0 0.49 2 149
r 0.664972 51 0 cbr 1000 ------- 0 17.0 0.16 1 66
- 0.665064 17 51 cbr 1000 ------- 0 17.0 0.16 2 116
r 0.673444 51 0 cbr 1000 ------- 0 44.0 0.43 2 143
r 0.682228 51 0 cbr 1000 ------- 0 6.0 0.5 0 5
- 0.68232 6 51 cbr 1000 ------- 0 6.0 0.5 1 55
r 0.691084 51 0 cbr 1000 ------- 0 6.0 0.5 1 55
- 0.691176 6 51 cbr 1000 ------- 0 6.0 0.5 2 105
r 0.69994 51 0 cbr 1000 ------- 0 6.0 0.5 2 105
r 0.709308 51 0 cbr 1000 ------- 0 33.0 0.32 2 132
r 0.718068 51 0 cbr 1000 ------- 0 11.0 0.10 0 10
- 0.71816 11 51 cbr 1000 ------- 0 11.0 0.10 1 60
r 0.726412 51 0 cbr 1000 ------- 0 11.0 0.10 1 60
- 0.726504 11 51 cbr 1000 ------- 0 11.0 0.10 2 110
r 0.734756 51 0 cbr 1000 ------- 0 11.0 0.10 2 110
h 0.74 1 51 cbr 1000 ------- 0 1.0 0.0 3 150
h 0.74 2 51 cbr 1000 ------- 0 2.0 0.1 3 151
h 0.74 3 51 cbr 1000 ------- 0 3.0 0.2 3 152
h 0.74 4 51 cbr 1000 ------- 0 4.0 0.3 3 153
h 0.74 5 51 cbr 1000 ------- 0 5.0 0.4 3 154
h 0.74 6 51 cbr 1000 ------- 0 6.0 0.5 3 155
h 0.74 7 51 cbr 1000 ------- 0 7.0 0.6 3 156
h 0.74 8 51 cbr 1000 ------- 0 8.0 0.7 3 157
h 0.74 9 51 cbr 1000 ------- 0 9.0 0.8 3 158
h 0.74 10 51 cbr 1000 ------- 0 10.0 0.9 3 159
h 0.74 11 51 cbr 1000 ------- 0 11.0 0.10 3 160
h 0.74 12 51 cbr 1000 ------- 0 12.0 0.11 3 161
h 0.74 13 51 cbr 1000 ------- 0 13.0 0.12 3 162
h 0.74 14 51 cbr 1000 ------- 0 14.0 0.13 3 163
h 0.74 15 51 cbr 1000 ------- 0 15.0 0.14 3 164
h 0.74 16 51 cbr 1000 ------- 0 16.0 0.15 3 165
h 0.74 17 51 cbr 1000 ------- 0 17.0 0.16 3 166
h 0.74 18 51 cbr 1000 ------- 0 18.0 0.17 3 167
h 0.74 19 51 cbr 1000 ------- 0 19.0 0.18 3 168
h 0.74 20 51 cbr 1000 ------- 0 20.0 0.19 3 169
h 0.74 21 51 cbr 1000 ------- 0 21.0 0.20 3 170
h 0.74 22 51 cbr 1000 ------- 0 22.0 0.21 3 171
h 0.74 23 51 cbr 1000 ------- 0 23.0 0.22 3 172
h 0.74 24 51 cbr 1000 ------- 0 24.0 0.23 3 173
h 0.74 25 51 cbr 1000 ------- 0 25.0 0.24 3 174
h 0.74 26 51 cbr 1000 ------- 0 26.0 0.25 3 175
h 0.74 27 51 cbr 1000 ------- 0 27.0 0.26 3 176
h 0.74 28 51 cbr 1000 ------- 0 28.0 0.27 3 177
h 0.74 29 51 cbr 1000 ------- 0 29.0 0.28 3 178
h 0.74 30 51 cbr 1000 ------- 0 30.0 0.29 3 179
h 0.74 31 51 cbr 1000 ------- 0 31.0 0.30 3 180
h 0.74 32 51 cbr 1000 ------- 0 32.0 0.31 3 181
h 0.74 33 51 cbr 1000 ------- 0 33.0 0.32 3 182
h 0.74 34 51 cbr 1000 ------- 0 34.0 0.33 3 183
h 0.74 35 51 cbr 1000 ------- 0 35.0 0.34 3 184
h 0.74 36 51 cbr 1000 ------- 0 36.0 0.35 3 185
h 0.74 37 51 cbr 1000 ------- 0 37.0 0.36 3 186
h 0.74 38 51 cbr 1000 ------- 0 38.0 0.37 3 187
h 0.74 39 51 cbr 1000 ------- 0 39.0 0.38 3 188
h 0.74 40 51 cbr 1000 ------- 0 40.0 0.39 3 189
h 0.74 41 51 cbr 1000 ------- 0 41.0 0.40 3 190
h 0.74 42 51 cbr 1000 ------- 0 42.0 0.41 3 191
h 0.74 43 51 cbr 1000 ------- 0 43.0 0.42 3 192
h 0.74 44 51 cbr 1000 ------- 0 44.0 0.43 3 193
h 0.74 45 51 cbr 1000 ------- 0 45.0 0.44 3 194
h 0.74 46 51 cbr 1000 ------- 0 46.0 0.45 3 195
h 0.74 47 51 cbr 1000 ------- 0 47.0 0.46 3 196
h 0.74 48 51 cbr 1000 ------- 0 48.0 0.47 3 197
h 0.74 49 51 cbr 1000 ------- 0 49.0 0.48 3 198
h 0.74 50 51 cbr 1000 ------- 0 50.0 0.49 3 199
+ 0.74 1 51 cbr 1000 ------- 0 1.0 0.0 3 150
+ 0.74 2 51 cbr 1000 ------- 0 2.0 0.1 3 151
+ 0.74 3 51 cbr 1000 ------- 0 3.0 0.2 3 152
+ 0.74 4 51 cbr 1000 ------- 0 4.0 0.3 3 153
+ 0.74 5 51 cbr 1000 ------- 0 5.0 0.4 3 154
+ 0.74 6 51 cbr 1000 ------- 0 6.0 0.5 3 155
- 0.74 6 51 cbr 1000 ------- 0 6.0 0.5 3 155
+ 0.74 7 51 cbr 1000 ------- 0 7.0 0.6 3 156
+ 0.74 8 51 cbr 1000 ------- 0 8.0 0.7 3 157
+ 0.74 9 51 cbr 1000 ------- 0 9.0 0.8 3 158
+ 0.74 10 51 cbr 1000 ------- 0 10.0 0.9 3 159
+ 0.74 11 51 cbr 1000 ------- 0 11.0 0.10 3 160
- 0.74 11 51 cbr 1000 ------- 0 11.0 0.10 3 160
+ 0.74 12 51 cbr 1000 ------- 0 12.0 0.11 3 161
+ 0.74 13 51 cbr 1000 ------- 0 13.0 0.12 3 162
+ 0.74 14 51 cbr 1000 ------- 0 14.0 0.13 3 163
+ 0.74 15 51 cbr 1000 ------- 0 15.0 0.14 3 164
+ 0.74 16 51 cbr 1000 ------- 0 16.0 0.15 3 165
+ 0.74 17 51 cbr 1000 ------- 0 17.0 0.16 3 166
+ 0.74 18 51 cbr 1000 ------- 0 18.0 0.17 3 167
+ 0.74 19 51 cbr 1000 ------- 0 19.0 0.18 3 168
+ 0.74 20 51 cbr 1000 ------- 0 20.0 0.19 3 169
+ 0.74 21 51 cbr 1000 ------- 0 21.0 0.20 3 170
+ 0.74 22 51 cbr 1000 ------- 0 22.0 0.21 3 171
+ 0.74 23 51 cbr 1000 ------- 0 23.0 0.22 3 172
+ 0.74 24 51 cbr 1000 ------- 0 24.0 0.23 3 173
+ 0.74 25 51 cbr 1000 ------- 0 25.0 0.24 3 174
+ 0.74 26 51 cbr 1000 ------- 0 26.0 0.25 3 175
+ 0.74 27 51 cbr 1000 ------- 0 27.0 0.26 3 176
+ 0.74 28 51 cbr 1000 ------- 0 28.0 0.27 3 177
+ 0.74 29 51 cbr 1000 ------- 0 29.0 0.28 3 178
+ 0.74 30 51 cbr 1000 ------- 0 30.0 0.29 3 179
+ 0.74 31 51 cbr 1000 ------- 0 31.0 0.30 3 180
+ 0.74 32 51 cbr 1000 ------- 0 32.0 0.31 3 181
+ 0.74 33 51 cbr 1000 ------- 0 33.0 0.32 3 182
- 0.74 33 51 cbr 1000 ------- 0 33.0 0.32 3 182
+ 0.74 34 51 cbr 1000 ------- 0 34.0 0.33 3 183
+ 0.74 35 51 cbr 1000 ------- 0 35.0 0.34 3 184
+ 0.74 36 51 cbr 1000 ------- 0 36.0 0.35 3 185
+ 0.74 37 51 cbr 1000 ------- 0 37.0 0.36 3 186
+ 0.74 38 51 cbr 1000 ------- 0 38.0 0.37 3 187
+ 0.74 39 51 cbr 1000 ------- 0 39.0 0.38 3 188
+ 0.74 40 51 cbr 1000 ------- 0 40.0 0.39 3 189
+ 0.74 41 51 cbr 1000 ------- 0 41.0 0.40 3 190
+ 0.74 42 51 cbr 1000 ------- 0 42.0 0.41 3 191
+ 0.74 43 51 cbr 1000 ------- 0 43.0 0.42 3 192
+ 0.74 44 51 cbr 1000 ------- 0 44.0 0.43 3 193
- 0.74 44 51 cbr 1000 ------- 0 44.0 0.43 3 193
+ 0.74 45 51 cbr 1000 ------- 0 45.0 0.44 3 194
+ 0.74 46 51 cbr 1000 ------- 0 46.0 0.45 3 195
+ 0.74 47 51 cbr 1000 ------- 0 47.0 0.46 3 196
+ 0.74 48 51 cbr 1000 ------- 0 48.0 0.47 3 197
+ 0.74 49 51 cbr 1000 ------- 0 49.0 0.48 3 198
+ 0.74 50 51 cbr 1000 ------- 0 50.0 0.49 3 199
r 0.748248 51 0 cbr 1000 ------- 0 6.0 0.5 3 155
r 0.757564 51 0 cbr 1000 ------- 0 1.0 0.0 1 50
- 0.757656 1 51 cbr 1000 ------- 0 1.0 0.0 2 100
r 0.765908 51 0 cbr 1000 ------- 0 1.0 0.0 2 100
- 0.766 1 51 cbr 1000 ------- 0 1.0 0.0 3 150
r 0.774252 51 0 cbr 1000 ------- 0 1.0 0.0 3 150
r 0.783188 51 0 cbr 1000 ------- 0 15.0 0.14 0 14
- 0.78328 15 51 cbr 1000 ------- 0 15.0 0.14 1 64
r 0.791532 51 0 cbr 1000 ------- 0 15.0 0.14 1 64
- 0.791624 15 51 cbr 1000 ------- 0 15.0 0.14 2 114
r 0.799876 51 0 cbr 1000 ------- 0 15.0 0.14 2 114
- 0.799968 15 51 cbr 1000 ------- 0 15.0 0.14 3 164
r 0.80822 51 0 cbr 1000 ------- 0 15.0 0.14 3 164
r 0.817032 51 0 cbr 1000 ------- 0 19.0 0.18 1 68
- 0.817124 19 51 cbr 1000 ------- 0 19.0 0.18 2 118
h 0.82 1 51 cbr 1000 ------- 0 1.0 0.0 4 200
h 0.82 2 51 cbr 1000 ------- 0 2.0 0.1 4 201
h 0.82 3 51 cbr 1000 ------- 0 3.0 0.2 4 202
h 0.82 4 51 cbr 1000 ------- 0 4.0 0.3 4 203
h 0.82 5 51 cbr 1000 ------- 0 5.0 0.4 4 204
h 0.82 6 51 cbr 1000 ------- 0 6.0 0.5 4 205
h 0.82 7 51 cbr 1000 ------- 0 7.0 0.6 4 206
h 0.82 8 51 cbr 1000 ------- 0 8.0 0.7 4 207
h 0.82 9 51 cbr 1000 ------- 0 9.0 0.8 4 208
h 0.82 10 51 cbr 1000 ------- 0 10.0 0.9 4 209
h 0.82 11 51 cbr 1000 ------- 0 11.0 0.10 4 210
h 0.82 12 51 cbr 1000 ------- 0 12.0 0.11 4 211
h 0.82 13 51 cbr 1000 ------- 0 13.0 0.12 4 212
h 0.82 14 51 cbr 1000 ------- 0 14.0 0.13 4 213
h 0.82 15 51 cbr 1000 ------- 0 15.0 0.14 4 214
h 0.82 16 51 cbr 1000 ------- 0 16.0 0.15 4 215
h 0.82 17 51 cbr 1000 ------- 0 17.0 0.16 4 216
h 0.82 18 51 cbr 1000 ------- 0 18.0 0.17 4 217
h 0.82 19 51 cbr 1000 ------- 0 19.0 0.18 4 218
h 0.82 20 51 cbr 1000 ------- 0 20.0 0.19 4 219
h 0.82 21 51 cbr 1000 ------- 0 21.0 0.20 4 220
h 0.82 22 51 cbr 1000 ------- 0 22.0 0.21 4 221
h 0.82 23 51 cbr 1000 ------- 0 23.0 0.22 4 222
h 0.82 24 51 cbr 1000 ------- 0 24.0 0.23 4 223
h 0.82 25 51 cbr 1000 ------- 0 25.0 0.24 4 224
h 0.82 26 51 cbr 1000 ------- 0 26.0 0.25 4 225
h 0.82 27 51 cbr 1000 ------- 0 27.0 0.26 4 226
h 0.82 28 51 cbr 1000 ------- 0 28.0 0.27 4 227
h 0.82 29 51 cbr 1000 ------- 0 29.0 0.28 4 228
h 0.82 30 51 cbr 1000 ------- 0 30.0 0.29 4 229
h 0.82 31 51 cbr 1000 ------- 0 31.0 0.30 4 230
h 0.82 32 51 cbr 1000 ------- 0 32.0 0.31 4 231
h 0.82 33 51 cbr 1000 ------- 0 33.0 0.32 4 232
h 0.82 34 51 cbr 1000 ------- 0 34.0 0.33 4 233
h 0.82 35 51 cbr 1000 ------- 0 35.0 0.34 4 234
h 0.82 36 51 cbr 1000 ------- 0 36.0 0.35 4 235
h 0.82 37 51 cbr 1000 ------- 0 37.0 0.36 4 236
h 0.82 38 51 cbr 1000 ------- 0 38.0 0.37 4 237
h 0.82 39 51 cbr 1000 ------- 0 39.0 0.38 4 238
h 0.82 40 51 cbr 1000 ------- 0 40.0 0.39 4 239
h 0.82 41 51 cbr 1000 ------- 0 41.0 0.40 4 240
h 0.82 42 51 cbr 1000 ------- 0 42.0 0.41 4 241
h 0.82 43 51 cbr 1000 ------- 0 43.0 0.42 4 242
h 0.82 44 51 cbr 1000 ------- 0 44.0 0.43 4 243
h 0.82 45 51 cbr 1000 ------- 0 45.0 0.44 4 244
h 0.82 46 51 cbr 1000 ------- 0 46.0 0.45 4 245
h 0.82 47 51 cbr 1000 ------- 0 47.0 0.46 4 246
h 0.82 48 51 cbr 1000 ------- 0 48.0 0.47 4 247
h 0.82 49 51 cbr 1000 ------- 0 49.0 0.48 4 248
h 0.82 50 51 cbr 1000 ------- 0 50.0 0.49 4 249
+ 0.82 1 51 cbr 1000 ------- 0 1.0 0.0 4 200
- 0.82 1 51 cbr 1000 ------- 0 1.0 0.0 4 200
+ 0.82 2 51 cbr 1000 ------- 0 2.0 0.1 4 201
+ 0.82 3 51 cbr 1000 ------- 0 3.0 0.2 4 202
+ 0.82 4 51 cbr 1000 ------- 0 4.0 0.3 4 203
+ 0.82 5 51 cbr 1000 ------- 0 5.0 0.4 4 204
+ 0.82 6 51 cbr 1000 ------- 0 6.0 0.5 4 205
- 0.82 6 51 cbr 1000 ------- 0 6.0 0.5 4 205
+ 0.82 7 51 cbr 1000 ------- 0 7.0 0.6 4 206
+ 0.82 8 51 cbr 1000 ------- 0 8.0 0.7 4 207
+ 0.82 9 51 cbr 1000 ------- 0 9.0 0.8 4 208
+ 0.82 10 51 cbr 1000 ------- 0 10.0 0.9 4 209
+ 0.82 11 51 cbr 1000 ------- 0 11.0 0.10 4 210
+ 0.82 12 51 cbr 1000 ------- 0 12.0 0.11 4 211
+ 0.82 13 51 cbr 1000 ------- 0 13.0 0.12 4 212
+ 0.82 14 51 cbr 1000 ------- 0 14.0 0.13 4 213
+ 0.82 15 51 cbr 1000 ------- 0 15.0 0.14 4 214
- 0.82 15 51 cbr 1000 ------- 0 15.0 0.14 4 214
+ 0.82 16 51 cbr 1000 ------- 0 16.0 0.15 4 215
+ 0.82 17 51 cbr 1000 ------- 0 17.0 0.16 4 216
+ 0.82 18 51 cbr 1000 ------- 0 18.0 0.17 4 217
+ 0.82 19 51 cbr 1000 ------- 0 19.0 0.18 4 218
+ 0.82 20 51 cbr 1000 ------- 0 20.0 0.19 4 219
+ 0.82 21 51 cbr 1000 ------- 0 21.0 0.20 4 220
+ 0.82 22 51 cbr 1000 ------- 0 22.0 0.21 4 221
+ 0.82 23 51 cbr 1000 ------- 0 23.0 0.22 4 222
+ 0.82 24 51 cbr 1000 ------- 0 24.0 0.23 4 223
+ 0.82 25 51 cbr 1000 ------- 0 25.0 0.24 4 224
+ 0.82 26 51 cbr 1000 ------- 0 26.0 0.25 4 225
+ 0.82 27 51 cbr 1000 ------- 0 27.0 0.26 4 226
+ 0.82 28 51 cbr 1000 ------- 0 28.0 0.27 4 227
+ 0.82 29 51 cbr 1000 ------- 0 29.0 0.28 4 228
+ 0.82 30 51 cbr 1000 ------- 0 30.0 0.29 4 229
+ 0.82 31 51 cbr 1000 ------- 0 31.0 0.30 4 230
+ 0.82 32 51 cbr 1000 ------- 0 32.0 0.31 4 231
+ 0.82 33 51 cbr 1000 ------- 0 33.0 0.32 4 232
+ 0.82 34 51 cbr 1000 ------- 0 34.0 0.33 4 233
+ 0.82 35 51 cbr 1000 ------- 0 35.0 0.34 4 234
+ 0.82 36 51 cbr 1000 ------- 0 36.0 0.35 4 235
+ 0.82 37 51 cbr 1000 ------- 0 37.0 0.36 4 236
+ 0.82 38 51 cbr 1000 ------- 0 38.0 0.37 4 237
+ 0.82 39 51 cbr 1000 ------- 0 39.0 0.38 4 238
+ 0.82 40 51 cbr 1000 ------- 0 40.0 0.39 4 239
+ 0.82 41 51 cbr 1000 ------- 0 41.0 0.40 4 240
+ 0.82 42 51 cbr 1000 ------- 0 42.0 0.41 4 241
+ 0.82 43 51 cbr 1000 ------- 0 43.0 0.42 4 242
+ 0.82 44 51 cbr 1000 ------- 0 44.0 0.43 4 243
+ 0.82 45 51 cbr 1000 ------- 0 45.0 0.44 4 244
+ 0.82 46 51 cbr 1000 ------- 0 46.0 0.45 4 245
+ 0.82 47 51 cbr 1000 ------- 0 47.0 0.46 4 246
+ 0.82 48 51 cbr 1000 ------- 0 48.0 0.47 4 247
+ 0.82 49 51 cbr 1000 ------- 0 49.0 0.48 4 248
+ 0.82 50 51 cbr 1000 ------- 0 50.0 0.49 4 249
r 0.825888 51 0 cbr 1000 ------- 0 19.0 0.18 2 118
- 0.82598 19 51 cbr 1000 ------- 0 19.0 0.18 3 168
r 0.834232 51 0 cbr 1000 ------- 0 19.0 0.18 3 168
- 0.834324 19 51 cbr 1000 ------- 0 19.0 0.18 4 218
r 0.842704 51 0 cbr 1000 ------- 0 6.0 0.5 4 205