h 0.5 1 11 cbr 1000 ------- 0 1.0 0.0 0 0
h 0.5 2 11 cbr 1000 ------- 0 2.0 0.1 0 1
h 0.5 3 11 cbr 1000 ------- 0 3.0 0.2 0 2
h 0.5 4 11 cbr 1000 ------- 0 4.0 0.3 0 3
h 0.5 5 11 cbr 1000 ------- 0 5.0 0.4 0 4
h 0.5 6 11 cbr 1000 ------- 0 6.0 0.5 0 5
h 0.5 7 11 cbr 1000 ------- 0 7.0 0.6 0 6
h 0.5 8 11 cbr 1000 ------- 0 8.0 0.7 0 7
h 0.5 9 11 cbr 1000 ------- 0 9.0 0.8 0 8
h 0.5 10 11 cbr 1000 ------- 0 10.0 0.9 0 9
+ 0.5 1 11 cbr 1000 ------- 0 1.0 0.0 0 0
- 0.5 1 11 cbr 1000 ------- 0 1.0 0.0 0 0
+ 0.5 2 11 cbr 1000 ------- 0 2.0 0.1 0 1
- 0.5 2 11 cbr 1000 ------- 0 2.0 0.1 0 1
+ 0.5 3 11 cbr 1000 ------- 0 3.0 0.2 0 2
- 0.5 3 11 cbr 1000 ------- 0 3.0 0.2 0 2
+ 0.5 4 11 cbr 1000 ------- 0 4.0 0.3 0 3
- 0.5 4 11 cbr 1000 ------- 0 4.0 0.3 0 3
+ 0.5 5 11 cbr 1000 ------- 0 5.0 0.4 0 4
- 0.5 5 11 cbr 1000 ------- 0 5.0 0.4 0 4
+ 0.5 6 11 cbr 1000 ------- 0 6.0 0.5 0 5
- 0.5 6 11 cbr 1000 ------- 0 6.0 0.5 0 5
+ 0.5 7 11 cbr 1000 ------- 0 7.0 0.6 0 6
- 0.5 7 11 cbr 1000 ------- 0 7.0 0.6 0 6
+ 0.5 8 11 cbr 1000 ------- 0 8.0 0.7 0 7
- 0.5 8 11 cbr 1000 ------- 0 8.0 0.7 0 7
+ 0.5 9 11 cbr 1000 ------- 0 9.0 0.8 0 8
- 0.5 9 11 cbr 1000 ------- 0 9.0 0.8 0 8
+ 0.5 10 11 cbr 1000 ------- 0 10.0 0.9 0 9
- 0.5 10 11 cbr 1000 ------- 0 10.0 0.9 0 9
r 0.508248 11 0 cbr 1000 ------- 0 8.0 0.7 0 7
r 0.516592 11 0 cbr 1000 ------- 0 2.0 0.1 0 1
r 0.525448 11 0 cbr 1000 ------- 0 7.0 0.6 0 6
r 0.536864 11 0 cbr 1000 ------- 0 10.0 0.9 0 9
r 0.545208 11 0 cbr 1000 ------- 0 4.0 0.3 0 3
r 0.55342 11 0 cbr 1000 ------- 0 5.0 0.4 0 4
r 0.56586 11 0 cbr 1000 ------- 0 6.0 0.5 0 5
r 0.574072 11 0 cbr 1000 ------- 0 3.0 0.2 0 2
h 0.58 1 11 cbr 1000 ------- 0 1.0 0.0 1 10
h 0.58 2 11 cbr 1000 ------- 0 2.0 0.1 1 11
h 0.58 3 11 cbr 1000 ------- 0 3.0 0.2 1 12
h 0.58 4 11 cbr 1000 ------- 0 4.0 0.3 1 13
h 0.58 5 11 cbr 1000 ------- 0 5.0 0.4 1 14
h 0.58 6 11 cbr 1000 ------- 0 6.0 0.5 1 15
h 0.58 7 11 cbr 1000 ------- 0 7.0 0.6 1 16
h 0.58 8 11 cbr 1000 ------- 0 8.0 0.7 1 17
h 0.58 9 11 cbr 1000 ------- 0 9.0 0.8 1 18
h 0.58 10 11 cbr 1000 ------- 0 10.0 0.9 1 19
+ 0.58 1 11 cbr 1000 ------- 0 1.0 0.0 1 10
+ 0.58 2 11 cbr 1000 ------- 0 2.0 0.1 1 11
- 0.58 2 11 cbr 1000 ------- 0 2.0 0.1 1 11
+ 0.58 3 11 cbr 1000 ------- 0 3.0 0.2 1 12
- 0.58 3 11 cbr 1000 ------- 0 3.0 0.2 1 12
+ 0.58 4 11 cbr 1000 ------- 0 4.0 0.3 1 13
- 0.58 4 11 cbr 1000 ------- 0 4.0 0.3 1 13
+ 0.58 5 11 cbr 1000 ------- 0 5.0 0.4 1 14
- 0.58 5 11 cbr 1000 ------- 0 5.0 0.4 1 14
+ 0.58 6 11 cbr 1000 ------- 0 6.0 0.5 1 15
- 0.58 6 11 cbr 1000 ------- 0 6.0 0.5 1 15
+ 0.58 7 11 cbr 1000 ------- 0 7.0 0.6 1 16
- 0.58 7 11 cbr 1000 ------- 0 7.0 0.6 1 16
+ 0.58 8 11 cbr 1000 ------- 0 8.0 0.7 1 17
- 0.58 8 11 cbr 1000 ------- 0 8.0 0.7 1 17
+ 0.58 9 11 cbr 1000 ------- 0 9.0 0.8 1 18
+ 0.58 10 11 cbr 1000 ------- 0 10.0 0.9 1 19
- 0.58 10 11 cbr 1000 ------- 0 10.0 0.9 1 19
r 0.582284 11 0 cbr 1000 ------- 0 9.0 0.8 0 8
- 0.582376 9 11 cbr 1000 ------- 0 9.0 0.8 1 18
r 0.590756 11 0 cbr 1000 ------- 0 4.0 0.3 1 13
r 0.5991 11 0 cbr 1000 ------- 0 6.0 0.5 1 15
r 0.607956 11 0 cbr 1000 ------- 0 9.0 0.8 1 18
r 0.620908 11 0 cbr 1000 ------- 0 2.0 0.1 1 11
r 0.629612 11 0 cbr 1000 ------- 0 10.0 0.9 1 19
r 0.637824 11 0 cbr 1000 ------- 0 5.0 0.4 1 14
r 0.650264 11 0 cbr 1000 ------- 0 7.0 0.6 1 16
r 0.658476 11 0 cbr 1000 ------- 0 3.0 0.2 1 12
h 0.66 1 11 cbr 1000 ------- 0 1.0 0.0 2 20
h 0.66 2 11 cbr 1000 ------- 0 2.0 0.1 2 21
h 0.66 3 11 cbr 1000 ------- 0 3.0 0.2 2 22
h 0.66 4 11 cbr 1000 ------- 0 4.0 0.3 2 23
h 0.66 5 11 cbr 1000 ------- 0 5.0 0.4 2 24
h 0.66 6 11 cbr 1000 ------- 0 6.0 0.5 2 25
h 0.66 7 11 cbr 1000 ------- 0 7.0 0.6 2 26
h 0.66 8 11 cbr 1000 ------- 0 8.0 0.7 2 27
h 0.66 9 11 cbr 1000 ------- 0 9.0 0.8 2 28
h 0.66 10 11 cbr 1000 ------- 0 10.0 0.9 2 29
+ 0.66 1 11 cbr 1000 ------- 0 1.0 0.0 2 20
+ 0.66 2 11 cbr 1000 ------- 0 2.0 0.1 2 21
- 0.66 2 11 cbr 1000 ------- 0 2.0 0.1 2 21
+ 0.66 3 11 cbr 1000 ------- 0 3.0 0.2 2 22
- 0.66 3 11 cbr 1000 ------- 0 3.0 0.2 2 22
+ 0.66 4 11 cbr 1000 ------- 0 4.0 0.3 2 23
- 0.66 4 11 cbr 1000 ------- 0 4.0 0.3 2 23
+ 0.66 5 11 cbr 1000 ------- 0 5.0 0.4 2 24
- 0.66 5 11 cbr 1000 ------- 0 5.0 0.4 2 24
+ 0.66 6 11 cbr 1000 ------- 0 6.0 0.5 2 25
- 0.66 6 11 cbr 1000 ------- 0 6.0 0.5 2 25
+ 0.66 7 11 cbr 1000 ------- 0 7.0 0.6 2 26
- 0.66 7 11 cbr 1000 ------- 0 7.0 0.6 2 26
+ 0.66 8 11 cbr 1000 ------- 0 8.0 0.7 2 27
+ 0.66 9 11 cbr 1000 ------- 0 9.0 0.8 2 28
- 0.66 9 11 cbr 1000 ------- 0 9.0 0.8 2 28
+ 0.66 10 11 cbr 1000 ------- 0 10.0 0.9 2 29
- 0.66 10 11 cbr 1000 ------- 0 10.0 0.9 2 29
r 0.666688 11 0 cbr 1000 ------- 0 8.0 0.7 1 17
- 0.66678 8 11 cbr 1000 ------- 0 8.0 0.7 2 27
r 0.675804 11 0 cbr 1000 ------- 0 9.0 0.8 2 28
r 0.685172 11 0 cbr 1000 ------- 0 5.0 0.4 2 24
r 0.693516 11 0 cbr 1000 ------- 0 2.0 0.1 2 21
r 0.70442 11 0 cbr 1000 ------- 0 3.0 0.2 2 22
r 0.713636 11 0 cbr 1000 ------- 0 4.0 0.3 2 23
r 0.73734 11 0 cbr 1000 ------- 0 7.0 0.6 2 26
h 0.74 1 11 cbr 1000 ------- 0 1.0 0.0 3 30
h 0.74 2 11 cbr 1000 ------- 0 2.0 0.1 3 31
h 0.74 3 11 cbr 1000 ------- 0 3.0 0.2 3 32
h 0.74 4 11 cbr 1000 ------- 0 4.0 0.3 3 33
h 0.74 5 11 cbr 1000 ------- 0 5.0 0.4 3 34
h 0.74 6 11 cbr 1000 ------- 0 6.0 0.5 3 35
h 0.74 7 11 cbr 1000 ------- 0 7.0 0.6 3 36
h 0.74 8 11 cbr 1000 ------- 0 8.0 0.7 3 37
h 0.74 9 11 cbr 1000 ------- 0 9.0 0.8 3 38
h 0.74 10 11 cbr 1000 ------- 0 10.0 0.9 3 39
+ 0.74 1 11 cbr 1000 ------- 0 1.0 0.0 3 30
+ 0.74 2 11 cbr 1000 ------- 0 2.0 0.1 3 31
- 0.74 2 11 cbr 1000 ------- 0 2.0 0.1 3 31
+ 0.74 3 11 cbr 1000 ------- 0 3.0 0.2 3 32
- 0.74 3 11 cbr 1000 ------- 0 3.0 0.2 3 32
+ 0.74 4 11 cbr 1000 ------- 0 4.0 0.3 3 33
- 0.74 4 11 cbr 1000 ------- 0 4.0 0.3 3 33
+ 0.74 5 11 cbr 1000 ------- 0 5.0 0.4 3 34
- 0.74 5 11 cbr 1000 ------- 0 5.0 0.4 3 34
+ 0.74 6 11 cbr 1000 ------- 0 6.0 0.5 3 35
+ 0.74 7 11 cbr 1000 ------- 0 7.0 0.6 3 36
- 0.74 7 11 cbr 1000 ------- 0 7.0 0.6 3 36
+ 0.74 8 11 cbr 1000 ------- 0 8.0 0.7 3 37
+ 0.74 9 11 cbr 1000 ------- 0 9.0 0.8 3 38
- 0.74 9 11 cbr 1000 ------- 0 9.0 0.8 3 38
+ 0.74 10 11 cbr 1000 ------- 0 10.0 0.9 3 39
r 0.746044 11 0 cbr 1000 ------- 0 10.0 0.9 2 29
- 0.746136 10 11 cbr 1000 ------- 0 10.0 0.9 3 39
r 0.75516 11 0 cbr 1000 ------- 0 10.0 0.9 3 39
r 0.763504 11 0 cbr 1000 ------- 0 9.0 0.8 3 38
r 0.772872 11 0 cbr 1000 ------- 0 4.0 0.3 3 33
r 0.782088 11 0 cbr 1000 ------- 0 5.0 0.4 3 34
r 0.798112 11 0 cbr 1000 ------- 0 7.0 0.6 3 36
r 0.80784 11 0 cbr 1000 ------- 0 3.0 0.2 3 32
r 0.816052 11 0 cbr 1000 ------- 0 2.0 0.1 3 31
h 0.82 1 11 cbr 1000 ------- 0 1.0 0.0 4 40
h 0.82 2 11 cbr 1000 ------- 0 2.0 0.1 4 41
h 0.82 3 11 cbr 1000 ------- 0 3.0 0.2 4 42
h 0.82 4 11 cbr 1000 ------- 0 4.0 0.3 4 43
h 0.82 5 11 cbr 1000 ------- 0 5.0 0.4 4 44
h 0.82 6 11 cbr 1000 ------- 0 6.0 0.5 4 45
h 0.82 7 11 cbr 1000 ------- 0 7.0 0.6 4 46
h 0.82 8 11 cbr 1000 ------- 0 8.0 0.7 4 47
h 0.82 9 11 cbr 1000 ------- 0 9.0 0.8 4 48
h 0.82 10 11 cbr 1000 ------- 0 10.0 0.9 4 49
+ 0.82 1 11 cbr 1000 ------- 0 1.0 0.0 4 40
+ 0.82 2 11 cbr 1000 ------- 0 2.0 0.1 4 41
- 0.82 2 11 cbr 1000 ------- 0 2.0 0.1 4 41
+ 0.82 3 11 cbr 1000 ------- 0 3.0 0.2 4 42
- 0.82 3 11 cbr 1000 ------- 0 3.0 0.2 4 42
+ 0.82 4 11 cbr 1000 ------- 0 4.0 0.3 4 43
- 0.82 4 11 cbr 1000 ------- 0 4.0 0.3 4 43
+ 0.82 5 11 cbr 1000 ------- 0 5.0 0.4 4 44
- 0.82 5 11 cbr 1000 ------- 0 5.0 0.4 4 44
+ 0.82 6 11 cbr 1000 ------- 0 6.0 0.5 4 45
+ 0.82 7 11 cbr 1000 ------- 0 7.0 0.6 4 46
- 0.82 7 11 cbr 1000 ------- 0 7.0 0.6 4 46
+ 0.82 8 11 cbr 1000 ------- 0 8.0 0.7 4 47
+ 0.82 9 11 cbr 1000 ------- 0 9.0 0.8 4 48
- 0.82 9 11 cbr 1000 ------- 0 9.0 0.8 4 48
+ 0.82 10 11 cbr 1000 ------- 0 10.0 0.9 4 49
- 0.82 10 11 cbr 1000 ------- 0 10.0 0.9 4 49
r 0.824264 11 0 cbr 1000 ------- 0 1.0 0.0 0 0
- 0.824356 1 11 cbr 1000 ------- 0 1.0 0.0 1 10
r 0.834916 11 0 cbr 1000 ------- 0 4.0 0.3 4 43
r 0.846976 11 0 cbr 1000 ------- 0 7.0 0.6 4 46
r 0.855832 11 0 cbr 1000 ------- 0 10.0 0.9 4 49
r 0.869144 11 0 cbr 1000 ------- 0 3.0 0.2 4 42
r 0.881944 11 0 cbr 1000 ------- 0 1.0 0.0 1 10
- 0.882036 1 11 cbr 1000 ------- 0 1.0 0.0 2 20
r 0.890288 11 0 cbr 1000 ------- 0 1.0 0.0 2 20
- 0.89038 1 11 cbr 1000 ------- 0 1.0 0.0 3 30
r 0.898632 11 0 cbr 1000 ------- 0 1.0 0.0 3 30
- 0.898724 1 11 cbr 1000 ------- 0 1.0 0.0 4 40
h 0.9 1 11 cbr 1000 ------- 0 1.0 0.0 5 50
h 0.9 2 11 cbr 1000 ------- 0 2.0 0.1 5 51
h 0.9 3 11 cbr 1000 ------- 0 3.0 0.2 5 52
h 0.9 4 11 cbr 1000 ------- 0 4.0 0.3 5 53
h 0.9 5 11 cbr 1000 ------- 0 5.0 0.4 5 54
h 0.9 6 11 cbr 1000 ------- 0 6.0 0.5 5 55
h 0.9 7 11 cbr 1000 ------- 0 7.0 0.6 5 56
h 0.9 8 11 cbr 1000 ------- 0 8.0 0.7 5 57
h 0.9 9 11 cbr 1000 ------- 0 9.0 0.8 5 58
h 0.9 10 11 cbr 1000 ------- 0 10.0 0.9 5 59
+ 0.9 1 11 cbr 1000 ------- 0 1.0 0.0 5 50
+ 0.9 2 11 cbr 1000 ------- 0 2.0 0.1 5 51
+ 0.9 3 11 cbr 1000 ------- 0 3.0 0.2 5 52
- 0.9 3 11 cbr 1000 ------- 0 3.0 0.2 5 52
+ 0.9 4 11 cbr 1000 ------- 0 4.0 0.3 5 53
- 0.9 4 11 cbr 1000 ------- 0 4.0 0.3 5 53
+ 0.9 5 11 cbr 1000 ------- 0 5.0 0.4 5 54
+ 0.9 6 11 cbr 1000 ------- 0 6.0 0.5 5 55
+ 0.9 7 11 cbr 1000 ------- 0 7.0 0.6 5 56
- 0.9 7 11 cbr 1000 ------- 0 7.0 0.6 5 56
+ 0.9 8 11 cbr 1000 ------- 0 8.0 0.7 5 57
+ 0.9 9 11 cbr 1000 ------- 0 9.0 0.8 5 58
+ 0.9 10 11 cbr 1000 ------- 0 10.0 0.9 5 59
- 0.9 10 11 cbr 1000 ------- 0 10.0 0.9 5 59
r 0.907488 11 0 cbr 1000 ------- 0 1.0 0.0 4 40
- 0.90758 1 11 cbr 1000 ------- 0 1.0 0.0 5 50
r 0.917628 11 0 cbr 1000 ------- 0 7.0 0.6 5 56
r 0.926996 11 0 cbr 1000 ------- 0 4.0 0.3 5 53
r 0.936876 11 0 cbr 1000 ------- 0 1.0 0.0 5 50
r 0.945088 11 0 cbr 1000 ------- 0 10.0 0.9 5 59
r 0.9533 11 0 cbr 1000 ------- 0 3.0 0.2 5 52
h 0.98 1 11 cbr 1000 ------- 0 1.0 0.0 6 60
h 0.98 2 11 cbr 1000 ------- 0 2.0 0.1 6 61
h 0.98 3 11 cbr 1000 ------- 0 3.0 0.2 6 62
h 0.98 4 11 cbr 1000 ------- 0 4.0 0.3 6 63
h 0.98 5 11 cbr 1000 ------- 0 5.0 0.4 6 64
h 0.98 6 11 cbr 1000 ------- 0 6.0 0.5 6 65
h 0.98 7 11 cbr 1000 ------- 0 7.0 0.6 6 66
h 0.98 8 11 cbr 1000 ------- 0 8.0 0.7 6 67
h 0.98 9 11 cbr 1000 ------- 0 9.0 0.8 6 68
h 0.98 10 11 cbr 1000 ------- 0 10.0 0.9 6 69
+ 0.98 1 11 cbr 1000 ------- 0 1.0 0.0 6 60
- 0.98 1 11 cbr 1000 ------- 0 1.0 0.0 6 60
+ 0.98 2 11 cbr 1000 ------- 0 2.0 0.1 6 61
+ 0.98 3 11 cbr 1000 ------- 0 3.0 0.2 6 62
- 0.98 3 11 cbr 1000 ------- 0 3.0 0.2 6 62
+ 0.98 4 11 cbr 1000 ------- 0 4.0 0.3 6 63
- 0.98 4 11 cbr 1000 ------- 0 4.0 0.3 6 63
+ 0.98 5 11 cbr 1000 ------- 0 5.0 0.4 6 64
+ 0.98 6 11 cbr 1000 ------- 0 6.0 0.5 6 65
+ 0.98 7 11 cbr 1000 ------- 0 7.0 0.6 6 66
- 0.98 7 11 cbr 1000 ------- 0 7.0 0.6 6 66
+ 0.98 8 11 cbr 1000 ------- 0 8.0 0.7 6 67
+ 0.98 9 11 cbr 1000 ------- 0 9.0 0.8 6 68
+ 0.98 10 11 cbr 1000 ------- 0 10.0 0.9 6 69
- 0.98 10 11 cbr 1000 ------- 0 10.0 0.9 6 69
r 0.988892 11 0 cbr 1000 ------- 0 1.0 0.0 6 60
r 0.997748 11 0 cbr 1000 ------- 0 3.0 0.2 6 62
r 1.00814 11 0 cbr 1000 ------- 0 10.0 0.9 6 69
r 1.016996 11 0 cbr 1000 ------- 0 4.0 0.3 6 63
r 1.025208 11 0 cbr 1000 ------- 0 9.0 0.8 4 48
- 1.0253 9 11 cbr 1000 ------- 0 9.0 0.8 5 58
r 1.033552 11 0 cbr 1000 ------- 0 9.0 0.8 5 58
- 1.033644 9 11 cbr 1000 ------- 0 9.0 0.8 6 68
r 1.042408 11 0 cbr 1000 ------- 0 9.0 0.8 6 68
h 1.06 1 11 cbr 1000 ------- 0 1.0 0.0 7 70
h 1.06 2 11 cbr 1000 ------- 0 2.0 0.1 7 71
h 1.06 3 11 cbr 1000 ------- 0 3.0 0.2 7 72
h 1.06 4 11 cbr 1000 ------- 0 4.0 0.3 7 73
h 1.06 5 11 cbr 1000 ------- 0 5.0 0.4 7 74
h 1.06 6 11 cbr 1000 ------- 0 6.0 0.5 7 75
h 1.06 7 11 cbr 1000 ------- 0 7.0 0.6 7 76
h 1.06 8 11 cbr 1000 ------- 0 8.0 0.7 7 77
h 1.06 9 11 cbr 1000 ------- 0 9.0 0.8 7 78
h 1.06 10 11 cbr 1000 ------- 0 10.0 0.9 7 79
+ 1.06 1 11 cbr 1000 ------- 0 1.0 0.0 7 70
- 1.06 1 11 cbr 1000 ------- 0 1.0 0.0 7 70
+ 1.06 2 11 cbr 1000 ------- 0 2.0 0.1 7 71
+ 1.06 3 11 cbr 1000 ------- 0 3.0 0.2 7 72
- 1.06 3 11 cbr 1000 ------- 0 3.0 0.2 7 72
+ 1.06 4 11 cbr 1000 ------- 0 4.0 0.3 7 73
- 1.06 4 11 cbr 1000 ------- 0 4.0 0.3 7 73
+ 1.06 5 11 cbr 1000 ------- 0 5.0 0.4 7 74
+ 1.06 6 11 cbr 1000 ------- 0 6.0 0.5 7 75
+ 1.06 7 11 cbr 1000 ------- 0 7.0 0.6 7 76
+ 1.06 8 11 cbr 1000 ------- 0 8.0 0.7 7 77
+ 1.06 9 11 cbr 1000 ------- 0 9.0 0.8 7 78
- 1.06 9 11 cbr 1000 ------- 0 9.0 0.8 7 78
+ 1.06 10 11 cbr 1000 ------- 0 10.0 0.9 7 79
- 1.06 10 11 cbr 1000 ------- 0 10.0 0.9 7 79
r 1.068892 11 0 cbr 1000 ------- 0 1.0 0.0 7 70
r 1.077748 11 0 cbr 1000 ------- 0 3.0 0.2 7 72
r 1.086092 11 0 cbr 1000 ------- 0 9.0 0.8 7 78
r 1.103844 11 0 cbr 1000 ------- 0 7.0 0.6 6 66
- 1.103936 7 11 cbr 1000 ------- 0 7.0 0.6 7 76
r 1.112188 11 0 cbr 1000 ------- 0 7.0 0.6 7 76
r 1.123092 11 0 cbr 1000 ------- 0 5.0 0.4 4 44
- 1.123184 5 11 cbr 1000 ------- 0 5.0 0.4 5 54
r 1.1313 11 0 cbr 1000 ------- 0 5.0 0.4 5 54
- 1.131392 5 11 cbr 1000 ------- 0 5.0 0.4 6 64
r 1.139644 11 0 cbr 1000 ------- 0 5.0 0.4 6 64
- 1.139736 5 11 cbr 1000 ------- 0 5.0 0.4 7 74
h 1.14 1 11 cbr 1000 ------- 0 1.0 0.0 8 80
h 1.14 2 11 cbr 1000 ------- 0 2.0 0.1 8 81
h 1.14 3 11 cbr 1000 ------- 0 3.0 0.2 8 82
h 1.14 4 11 cbr 1000 ------- 0 4.0 0.3 8 83
h 1.14 5 11 cbr 1000 ------- 0 5.0 0.4 8 84
h 1.14 6 11 cbr 1000 ------- 0 6.0 0.5 8 85
h 1.14 7 11 cbr 1000 ------- 0 7.0 0.6 8 86
h 1.14 8 11 cbr 1000 ------- 0 8.0 0.7 8 87
h 1.14 9 11 cbr 1000 ------- 0 9.0 0.8 8 88
h 1.14 10 11 cbr 1000 ------- 0 10.0 0.9 8 89
+ 1.14 1 11 cbr 1000 ------- 0 1.0 0.0 8 80
- 1.14 1 11 cbr 1000 ------- 0 1.0 0.0 8 80
+ 1.14 2 11 cbr 1000 ------- 0 2.0 0.1 8 81
+ 1.14 3 11 cbr 1000 ------- 0 3.0 0.2 8 82
- 1.14 3 11 cbr 1000 ------- 0 3.0 0.2 8 82
+ 1.14 4 11 cbr 1000 ------- 0 4.0 0.3 8 83
+ 1.14 5 11 cbr 1000 ------- 0 5.0 0.4 8 84
+ 1.14 6 11 cbr 1000 ------- 0 6.0 0.5 8 85
+ 1.14 7 11 cbr 1000 ------- 0 7.0 0.6 8 86
- 1.14 7 11 cbr 1000 ------- 0 7.0 0.6 8 86
+ 1.14 8 11 cbr 1000 ------- 0 8.0 0.7 8 87
+ 1.14 9 11 cbr 1000 ------- 0 9.0 0.8 8 88
- 1.14 9 11 cbr 1000 ------- 0 9.0 0.8 8 88
+ 1.14 10 11 cbr 1000 ------- 0 10.0 0.9 8 89
r 1.148248 11 0 cbr 1000 ------- 0 9.0 0.8 8 88
r 1.156592 11 0 cbr 1000 ------- 0 3.0 0.2 8 82
r 1.165448 11 0 cbr 1000 ------- 0 7.0 0.6 8 86
r 1.175328 11 0 cbr 1000 ------- 0 5.0 0.4 7 74
- 1.17542 5 11 cbr 1000 ------- 0 5.0 0.4 8 84
r 1.183672 11 0 cbr 1000 ------- 0 5.0 0.4 8 84
r 1.209936 11 0 cbr 1000 ------- 0 1.0 0.0 8 80
r 1.218148 11 0 cbr 1000 ------- 0 10.0 0.9 7 79
- 1.21824 10 11 cbr 1000 ------- 0 10.0 0.9 8 89
h 1.22 1 11 cbr 1000 ------- 0 1.0 0.0 9 90
h 1.22 2 11 cbr 1000 ------- 0 2.0 0.1 9 91
h 1.22 3 11 cbr 1000 ------- 0 3.0 0.2 9 92
h 1.22 4 11 cbr 1000 ------- 0 4.0 0.3 9 93
h 1.22 5 11 cbr 1000 ------- 0 5.0 0.4 9 94
h 1.22 6 11 cbr 1000 ------- 0 6.0 0.5 9 95
h 1.22 7 11 cbr 1000 ------- 0 7.0 0.6 9 96
h 1.22 8 11 cbr 1000 ------- 0 8.0 0.7 9 97
h 1.22 9 11 cbr 1000 ------- 0 9.0 0.8 9 98
h 1.22 10 11 cbr 1000 ------- 0 10.0 0.9 9 99
+ 1.22 1 11 cbr 1000 ------- 0 1.0 0.0 9 90
- 1.22 1 11 cbr 1000 ------- 0 1.0 0.0 9 90
+ 1.22 2 11 cbr 1000 ------- 0 2.0 0.1 9 91
+ 1.22 3 11 cbr 1000 ------- 0 3.0 0.2 9 92
- 1.22 3 11 cbr 1000 ------- 0 3.0 0.2 9 92
+ 1.22 4 11 cbr 1000 ------- 0 4.0 0.3 9 93
+ 1.22 5 11 cbr 1000 ------- 0 5.0 0.4 9 94
- 1.22 5 11 cbr 1000 ------- 0 5.0 0.4 9 94
+ 1.22 6 11 cbr 1000 ------- 0 6.0 0.5 9 95
+ 1.22 7 11 cbr 1000 ------- 0 7.0 0.6 9 96
- 1.22 7 11 cbr 1000 ------- 0 7.0 0.6 9 96
+ 1.22 8 11 cbr 1000 ------- 0 8.0 0.7 9 97
+ 1.22 9 11 cbr 1000 ------- 0 9.0 0.8 9 98
- 1.22 9 11 cbr 1000 ------- 0 9.0 0.8 9 98
+ 1.22 10 11 cbr 1000 ------- 0 10.0 0.9 9 99
r 1.226492 11 0 cbr 1000 ------- 0 10.0 0.9 8 89
- 1.226584 10 11 cbr 1000 ------- 0 10.0 0.9 9 99
r 1.235476 11 0 cbr 1000 ------- 0 1.0 0.0 9 90
r 1.24382 11 0 cbr 1000 ------- 0 10.0 0.9 9 99
r 1.252164 11 0 cbr 1000 ------- 0 5.0 0.4 9 94
r 1.262556 11 0 cbr 1000 ------- 0 9.0 0.8 9 98
r 1.27126 11 0 cbr 1000 ------- 0 3.0 0.2 9 92
r 1.279472 11 0 cbr 1000 ------- 0 7.0 0.6 9 96
r 1.299024 11 0 cbr 1000 ------- 0 4.0 0.3 7 73
- 1.299116 4 11 cbr 1000 ------- 0 4.0 0.3 8 83
h 1.3 1 11 cbr 1000 ------- 0 1.0 0.0 10 100
h 1.3 2 11 cbr 1000 ------- 0 2.0 0.1 10 101
h 1.3 3 11 cbr 1000 ------- 0 3.0 0.2 10 102
h 1.3 4 11 cbr 1000 ------- 0 4.0 0.3 10 103
h 1.3 5 11 cbr 1000 ------- 0 5.0 0.4 10 104
h 1.3 6 11 cbr 1000 ------- 0 6.0 0.5 10 105
h 1.3 7 11 cbr 1000 ------- 0 7.0 0.6 10 106
h 1.3 8 11 cbr 1000 ------- 0 8.0 0.7 10 107
h 1.3 9 11 cbr 1000 ------- 0 9.0 0.8 10 108
h 1.3 10 11 cbr 1000 ------- 0 10.0 0.9 10 109
+ 1.3 1 11 cbr 1000 ------- 0 1.0 0.0 10 100
- 1.3 1 11 cbr 1000 ------- 0 1.0 0.0 10 100
+ 1.3 2 11 cbr 1000 ------- 0 2.0 0.1 10 101
+ 1.3 3 11 cbr 1000 ------- 0 3.0 0.2 10 102
- 1.3 3 11 cbr 1000 ------- 0 3.0 0.2 10 102
+ 1.3 4 11 cbr 1000 ------- 0 4.0 0.3 10 103
+ 1.3 5 11 cbr 1000 ------- 0 5.0 0.4 10 104
- 1.3 5 11 cbr 1000 ------- 0 5.0 0.4 10 104
+ 1.3 6 11 cbr 1000 ------- 0 6.0 0.5 10 105
+ 1.3 7 11 cbr 1000 ------- 0 7.0 0.6 10 106
- 1.3 7 11 cbr 1000 ------- 0 7.0 0.6 10 106
+ 1.3 8 11 cbr 1000 ------- 0 8.0 0.7 10 107
+ 1.3 9 11 cbr 1000 ------- 0 9.0 0.8 10 108
- 1.3 9 11 cbr 1000 ------- 0 9.0 0.8 10 108
+ 1.3 10 11 cbr 1000 ------- 0 10.0 0.9 10 109
- 1.3 10 11 cbr 1000 ------- 0 10.0 0.9 10 109
r 1.307232 11 0 cbr 1000 ------- 0 4.0 0.3 8 83
- 1.307324 4 11 cbr 1000 ------- 0 4.0 0.3 9 93
r 1.315704 11 0 cbr 1000 ------- 0 4.0 0.3 9 93
- 1.315796 4 11 cbr 1000 ------- 0 4.0 0.3 10 103
r 1.324556 11 0 cbr 1000 ------- 0 7.0 0.6 10 106
r 1.333924 11 0 cbr 1000 ------- 0 4.0 0.3 10 103
r 1.344316 11 0 cbr 1000 ------- 0 9.0 0.8 10 108
r 1.353684 11 0 cbr 1000 ------- 0 3.0 0.2 10 102
r 1.364948 11 0 cbr 1000 ------- 0 1.0 0.0 10 100
r 1.374316 11 0 cbr 1000 ------- 0 10.0 0.9 10 109
h 1.38 1 11 cbr 1000 ------- 0 1.0 0.0 11 110
h 1.38 2 11 cbr 1000 ------- 0 2.0 0.1 11 111
h 1.38 3 11 cbr 1000 ------- 0 3.0 0.2 11 112
h 1.38 4 11 cbr 1000 ------- 0 4.0 0.3 11 113
h 1.38 5 11 cbr 1000 ------- 0 5.0 0.4 11 114
h 1.38 6 11 cbr 1000 ------- 0 6.0 0.5 11 115
h 1.38 7 11 cbr 1000 ------- 0 7.0 0.6 11 116
h 1.38 8 11 cbr 1000 ------- 0 8.0 0.7 11 117
h 1.38 9 11 cbr 1000 ------- 0 9.0 0.8 11 118
h 1.38 10 11 cbr 1000 ------- 0 10.0 0.9 11 119
+ 1.38 1 11 cbr 1000 ------- 0 1.0 0.0 11 110
- 1.38 1 11 cbr 1000 ------- 0 1.0 0.0 11 110
+ 1.38 2 11 cbr 1000 ------- 0 2.0 0.1 11 111
+ 1.38 3 11 cbr 1000 ------- 0 3.0 0.2 11 112
- 1.38 3 11 cbr 1000 ------- 0 3.0 0.2 11 112
+ 1.38 4 11 cbr 1000 ------- 0 4.0 0.3 11 113
- 1.38 4 11 cbr 1000 ------- 0 4.0 0.3 11 113
+ 1.38 5 11 cbr 1000 ------- 0 5.0 0.4 11 114
+ 1.38 6 11 cbr 1000 ------- 0 6.0 0.5 11 115
+ 1.38 7 11 cbr 1000 ------- 0 7.0 0.6 11 116
- 1.38 7 11 cbr 1000 ------- 0 7.0 0.6 11 116
+ 1.38 8 11 cbr 1000 ------- 0 8.0 0.7 11 117
+ 1.38 9 11 cbr 1000 ------- 0 9.0 0.8 11 118
- 1.38 9 11 cbr 1000 ------- 0 9.0 0.8 11 118
+ 1.38 10 11 cbr 1000 ------- 0 10.0 0.9 11 119
- 1.38 10 11 cbr 1000 ------- 0 10.0 0.9 11 119
r 1.382528 11 0 cbr 1000 ------- 0 5.0 0.4 10 104
- 1.38262 5 11 cbr 1000 ------- 0 5.0 0.4 11 114
r 1.391 11 0 cbr 1000 ------- 0 1.0 0.0 11 110
r 1.399476 11 0 cbr 1000 ------- 0 3.0 0.2 11 112
r 1.408844 11 0 cbr 1000 ------- 0 4.0 0.3 11 113
r 1.421796 11 0 cbr 1000 ------- 0 5.0 0.4 11 114
r 1.430008 11 0 cbr 1000 ------- 0 9.0 0.8 11 118
r 1.44808 11 0 cbr 1000 ------- 0 10.0 0.9 11 119
r 1.456292 11 0 cbr 1000 ------- 0 7.0 0.6 11 116
h 1.46 1 11 cbr 1000 ------- 0 1.0 0.0 12 120
h 1.46 2 11 cbr 1000 ------- 0 2.0 0.1 12 121
h 1.46 3 11 cbr 1000 ------- 0 3.0 0.2 12 122
h 1.46 4 11 cbr 1000 ------- 0 4.0 0.3 12 123
h 1.46 5 11 cbr 1000 ------- 0 5.0 0.4 12 124
h 1.46 6 11 cbr 1000 ------- 0 6.0 0.5 12 125
h 1.46 7 11 cbr 1000 ------- 0 7.0 0.6 12 126
h 1.46 8 11 cbr 1000 ------- 0 8.0 0.7 12 127
h 1.46 9 11 cbr 1000 ------- 0 9.0 0.8 12 128
h 1.46 10 11 cbr 1000 ------- 0 10.0 0.9 12 129
+ 1.46 1 11 cbr 1000 ------- 0 1.0 0.0 12 120
- 1.46 1 11 cbr 1000 ------- 0 1.0 0.0 12 120
+ 1.46 2 11 cbr 1000 ------- 0 2.0 0.1 12 121
+ 1.46 3 11 cbr 1000 ------- 0 3.0 0.2 12 122
- 1.46 3 11 cbr 1000 ------- 0 3.0 0.2 12 122
+ 1.46 4 11 cbr 1000 ------- 0 4.0 0.3 12 123
- 1.46 4 11 cbr 1000 ------- 0 4.0 0.3 12 123
+ 1.46 5 11 cbr 1000 ------- 0 5.0 0.4 12 124
- 1.46 5 11 cbr 1000 ------- 0 5.0 0.4 12 124
+ 1.46 6 11 cbr 1000 ------- 0 6.0 0.5 12 125
+ 1.46 7 11 cbr 1000 ------- 0 7.0 0.6 12 126
- 1.46 7 11 cbr 1000 ------- 0 7.0 0.6 12 126
+ 1.46 8 11 cbr 1000 ------- 0 8.0 0.7 12 127
+ 1.46 9 11 cbr 1000 ------- 0 9.0 0.8 12 128
- 1.46 9 11 cbr 1000 ------- 0 9.0 0.8 12 128
+ 1.46 10 11 cbr 1000 ------- 0 10.0 0.9 12 129
- 1.46 10 11 cbr 1000 ------- 0 10.0 0.9 12 129
r 1.46838 11 0 cbr 1000 ------- 0 3.0 0.2 12 122
r 1.476724 11 0 cbr 1000 ------- 0 7.0 0.6 12 126
r 1.485068 11 0 cbr 1000 ------- 0 10.0 0.9 12 129
r 1.494436 11 0 cbr 1000 ------- 0 1.0 0.0 12 120
r 1.502648 11 0 cbr 1000 ------- 0 4.0 0.3 12 123
r 1.523792 11 0 cbr 1000 ------- 0 9.0 0.8 12 128
r 1.534428 11 0 cbr 1000 ------- 0 8.0 0.7 2 27
- 1.53452 8 11 cbr 1000 ------- 0 8.0 0.7 3 37
h 1.54 1 11 cbr 1000 ------- 0 1.0 0.0 13 130
h 1.54 2 11 cbr 1000 ------- 0 2.0 0.1 13 131
h 1.54 3 11 cbr 1000 ------- 0 3.0 0.2 13 132
h 1.54 4 11 cbr 1000 ------- 0 4.0 0.3 13 133
h 1.54 5 11 cbr 1000 ------- 0 5.0 0.4 13 134
h 1.54 6 11 cbr 1000 ------- 0 6.0 0.5 13 135
h 1.54 7 11 cbr 1000 ------- 0 7.0 0.6 13 136
h 1.54 8 11 cbr 1000 ------- 0 8.0 0.7 13 137
h 1.54 9 11 cbr 1000 ------- 0 9.0 0.8 13 138
h 1.54 10 11 cbr 1000 ------- 0 10.0 0.9 13 139
+ 1.54 1 11 cbr 1000 ------- 0 1.0 0.0 13 130
- 1.54 1 11 cbr 1000 ------- 0 1.0 0.0 13 130
+ 1.54 2 11 cbr 1000 ------- 0 2.0 0.1 13 131
+ 1.54 3 11 cbr 1000 ------- 0 3.0 0.2 13 132
- 1.54 3 11 cbr 1000 ------- 0 3.0 0.2 13 132
+ 1.54 4 11 cbr 1000 ------- 0 4.0 0.3 13 133
- 1.54 4 11 cbr 1000 ------- 0 4.0 0.3 13 133
+ 1.54 5 11 cbr 1000 ------- 0 5.0 0.4 13 134
+ 1.54 6 11 cbr 1000 ------- 0 6.0 0.5 13 135
+ 1.54 7 11 cbr 1000 ------- 0 7.0 0.6 13 136
- 1.54 7 11 cbr 1000 ------- 0 7.0 0.6 13 136
+ 1.54 8 11 cbr 1000 ------- 0 8.0 0.7 13 137
+ 1.54 9 11 cbr 1000 ------- 0 9.0 0.8 13 138
- 1.54 9 11 cbr 1000 ------- 0 9.0 0.8 13 138
+ 1.54 10 11 cbr 1000 ------- 0 10.0 0.9 13 139
- 1.54 10 11 cbr 1000 ------- 0 10.0 0.9 13 139
r 1.542772 11 0 cbr 1000 ------- 0 8.0 0.7 3 37
- 1.542864 8 11 cbr 1000 ------- 0 8.0 0.7 4 47
r 1.551244 11 0 cbr 1000 ------- 0 9.0 0.8 13 138
r 1.560232 11 0 cbr 1000 ------- 0 10.0 0.9 13 139
r 1.568576 11 0 cbr 1000 ------- 0 4.0 0.3 13 133
r 1.57692 11 0 cbr 1000 ------- 0 3.0 0.2 13 132
r 1.586288 11 0 cbr 1000 ------- 0 1.0 0.0 13 130
r 1.59564 11 0 cbr 1000 ------- 0 6.0 0.5 2 25
- 1.595732 6 11 cbr 1000 ------- 0 6.0 0.5 3 35
r 1.603848 11 0 cbr 1000 ------- 0 6.0 0.5 3 35
- 1.60394 6 11 cbr 1000 ------- 0 6.0 0.5 4 45
r 1.612056 11 0 cbr 1000 ------- 0 6.0 0.5 4 45
- 1.612148 6 11 cbr 1000 ------- 0 6.0 0.5 5 55
h 1.62 1 11 cbr 1000 ------- 0 1.0 0.0 14 140
h 1.62 2 11 cbr 1000 ------- 0 2.0 0.1 14 141
h 1.62 3 11 cbr 1000 ------- 0 3.0 0.2 14 142
h 1.62 4 11 cbr 1000 ------- 0 4.0 0.3 14 143
h 1.62 5 11 cbr 1000 ------- 0 5.0 0.4 14 144
h 1.62 6 11 cbr 1000 ------- 0 6.0 0.5 14 145
h 1.62 7 11 cbr 1000 ------- 0 7.0 0.6 14 146
h 1.62 8 11 cbr 1000 ------- 0 8.0 0.7 14 147
h 1.62 9 11 cbr 1000 ------- 0 9.0 0.8 14 148
h 1.62 10 11 cbr 1000 ------- 0 10.0 0.9 14 149
+ 1.62 1 11 cbr 1000 ------- 0 1.0 0.0 14 140
- 1.62 1 11 cbr 1000 ------- 0 1.0 0.0 14 140
+ 1.62 2 11 cbr 1000 ------- 0 2.0 0.1 14 141
+ 1.62 3 11 cbr 1000 ------- 0 3.0 0.2 14 142
- 1.62 3 11 cbr 1000 ------- 0 3.0 0.2 14 142
+ 1.62 4 11 cbr 1000 ------- 0 4.0 0.3 14 143
- 1.62 4 11 cbr 1000 ------- 0 4.0 0.3 14 143
+ 1.62 5 11 cbr 1000 ------- 0 5.0 0.4 14 144
+ 1.62 6 11 cbr 1000 ------- 0 6.0 0.5 14 145
+ 1.62 7 11 cbr 1000 ------- 0 7.0 0.6 14 146
+ 1.62 8 11 cbr 1000 ------- 0 8.0 0.7 14 147
+ 1.62 9 11 cbr 1000 ------- 0 9.0 0.8 14 148
- 1.62 9 11 cbr 1000 ------- 0 9.0 0.8 14 148
+ 1.62 10 11 cbr 1000 ------- 0 10.0 0.9 14 149
- 1.62 10 11 cbr 1000 ------- 0 10.0 0.9 14 149
r 1.620912 11 0 cbr 1000 ------- 0 6.0 0.5 5 55
- 1.621004 6 11 cbr 1000 ------- 0 6.0 0.5 6 65
r 1.629516 11 0 cbr 1000 ------- 0 3.0 0.2 14 142
r 1.638372 11 0 cbr 1000 ------- 0 9.0 0.8 14 148
r 1.646716 11 0 cbr 1000 ------- 0 6.0 0.5 6 65
- 1.646808 6 11 cbr 1000 ------- 0 6.0 0.5 7 75
r 1.65506 11 0 cbr 1000 ------- 0 6.0 0.5 7 75
- 1.655152 6 11 cbr 1000 ------- 0 6.0 0.5 8 85
r 1.663404 11 0 cbr 1000 ------- 0 6.0 0.5 8 85
- 1.663496 6 11 cbr 1000 ------- 0 6.0 0.5 9 95
r 1.671748 11 0 cbr 1000 ------- 0 6.0 0.5 9 95
- 1.67184 6 11 cbr 1000 ------- 0 6.0 0.5 10 105
r 1.680604 11 0 cbr 1000 ------- 0 6.0 0.5 10 105
- 1.680696 6 11 cbr 1000 ------- 0 6.0 0.5 11 115
r 1.68908 11 0 cbr 1000 ------- 0 6.0 0.5 11 115
- 1.689172 6 11 cbr 1000 ------- 0 6.0 0.5 12 125
r 1.697936 11 0 cbr 1000 ------- 0 6.0 0.5 12 125
- 1.698028 6 11 cbr 1000 ------- 0 6.0 0.5 13 135
h 1.7 1 11 cbr 1000 ------- 0 1.0 0.0 15 150
h 1.7 2 11 cbr 1000 ------- 0 2.0 0.1 15 151
h 1.7 3 11 cbr 1000 ------- 0 3.0 0.2 15 152
h 1.7 4 11 cbr 1000 ------- 0 4.0 0.3 15 153
h 1.7 5 11 cbr 1000 ------- 0 5.0 0.4 15 154
h 1.7 6 11 cbr 1000 ------- 0 6.0 0.5 15 155
h 1.7 7 11 cbr 1000 ------- 0 7.0 0.6 15 156
h 1.7 8 11 cbr 1000 ------- 0 8.0 0.7 15 157
h 1.7 9 11 cbr 1000 ------- 0 9.0 0.8 15 158
h 1.7 10 11 cbr 1000 ------- 0 10.0 0.9 15 159
+ 1.7 1 11 cbr 1000 ------- 0 1.0 0.0 15 150
+ 1.7 2 11 cbr 1000 ------- 0 2.0 0.1 15 151
+ 1.7 3 11 cbr 1000 ------- 0 3.0 0.2 15 152
- 1.7 3 11 cbr 1000 ------- 0 3.0 0.2 15 152
+ 1.7 4 11 cbr 1000 ------- 0 4.0 0.3 15 153
+ 1.7 5 11 cbr 1000 ------- 0 5.0 0.4 15 154
+ 1.7 6 11 cbr 1000 ------- 0 6.0 0.5 15 155
+ 1.7 7 11 cbr 1000 ------- 0 7.0 0.6 15 156
+ 1.7 8 11 cbr 1000 ------- 0 8.0 0.7 15 157
+ 1.7 9 11 cbr 1000 ------- 0 9.0 0.8 15 158
- 1.7 9 11 cbr 1000 ------- 0 9.0 0.8 15 158
+ 1.7 10 11 cbr 1000 ------- 0 10.0 0.9 15 159
r 1.706144 11 0 cbr 1000 ------- 0 6.0 0.5 13 135
- 1.706236 6 11 cbr 1000 ------- 0 6.0 0.5 14 145
r 1.714616 11 0 cbr 1000 ------- 0 9.0 0.8 15 158
r 1.723472 11 0 cbr 1000 ------- 0 6.0 0.5 14 145
- 1.723564 6 11 cbr 1000 ------- 0 6.0 0.5 15 155
r 1.732328 11 0 cbr 1000 ------- 0 6.0 0.5 15 155
r 1.752448 11 0 cbr 1000 ------- 0 3.0 0.2 15 152
h 1.78 1 11 cbr 1000 ------- 0 1.0 0.0 16 160
h 1.78 2 11 cbr 1000 ------- 0 2.0 0.1 16 161
h 1.78 3 11 cbr 1000 ------- 0 3.0 0.2 16 162
h 1.78 4 11 cbr 1000 ------- 0 4.0 0.3 16 163
h 1.78 5 11 cbr 1000 ------- 0 5.0 0.4 16 164
h 1.78 6 11 cbr 1000 ------- 0 6.0 0.5 16 165
h 1.78 7 11 cbr 1000 ------- 0 7.0 0.6 16 166
h 1.78 8 11 cbr 1000 ------- 0 8.0 0.7 16 167
h 1.78 9 11 cbr 1000 ------- 0 9.0 0.8 16 168
h 1.78 10 11 cbr 1000 ------- 0 10.0 0.9 16 169
+ 1.78 1 11 cbr 1000 ------- 0 1.0 0.0 16 160
+ 1.78 2 11 cbr 1000 ------- 0 2.0 0.1 16 161
+ 1.78 3 11 cbr 1000 ------- 0 3.0 0.2 16 162
- 1.78 3 11 cbr 1000 ------- 0 3.0 0.2 16 162
+ 1.78 4 11 cbr 1000 ------- 0 4.0 0.3 16 163
+ 1.78 5 11 cbr 1000 ------- 0 5.0 0.4 16 164
+ 1.78 6 11 cbr 1000 ------- 0 6.0 0.5 16 165
- 1.78 6 11 cbr 1000 ------- 0 6.0 0.5 16 165
+ 1.78 7 11 cbr 1000 ------- 0 7.0 0.6 16 166
+ 1.78 8 11 cbr 1000 ------- 0 8.0 0.7 16 167
+ 1.78 9 11 cbr 1000 ------- 0 9.0 0.8 16 168
- 1.78 9 11 cbr 1000 ------- 0 9.0 0.8 16 168
+ 1.78 10 11 cbr 1000 ------- 0 10.0 0.9 16 169
r 1.788248 11 0 cbr 1000 ------- 0 3.0 0.2 16 162
r 1.797616 11 0 cbr 1000 ------- 0 9.0 0.8 16 168
r 1.806984 11 0 cbr 1000 ------- 0 6.0 0.5 16 165
r 1.818764 11 0 cbr 1000 ------- 0 1.0 0.0 14 140
- 1.818856 1 11 cbr 1000 ------- 0 1.0 0.0 15 150
r 1.826972 11 0 cbr 1000 ------- 0 1.0 0.0 15 150
- 1.827064 1 11 cbr 1000 ------- 0 1.0 0.0 16 160
r 1.835316 11 0 cbr 1000 ------- 0 1.0 0.0 16 160
r 1.844292 11 0 cbr 1000 ------- 0 5.0 0.4 12 124
- 1.844384 5 11 cbr 1000 ------- 0 5.0 0.4 13 134
r 1.8525 11 0 cbr 1000 ------- 0 5.0 0.4 13 134
- 1.852592 5 11 cbr 1000 ------- 0 5.0 0.4 14 144
h 1.86 1 11 cbr 1000 ------- 0 1.0 0.0 17 170
h 1.86 2 11 cbr 1000 ------- 0 2.0 0.1 17 171
h 1.86 3 11 cbr 1000 ------- 0 3.0 0.2 17 172
h 1.86 4 11 cbr 1000 ------- 0 4.0 0.3 17 173
h 1.86 5 11 cbr 1000 ------- 0 5.0 0.4 17 174
h 1.86 6 11 cbr 1000 ------- 0 6.0 0.5 17 175
h 1.86 7 11 cbr 1000 ------- 0 7.0 0.6 17 176
h 1.86 8 11 cbr 1000 ------- 0 8.0 0.7 17 177
h 1.86 9 11 cbr 1000 ------- 0 9.0 0.8 17 178
h 1.86 10 11 cbr 1000 ------- 0 10.0 0.9 17 179
+ 1.86 1 11 cbr 1000 ------- 0 1.0 0.0 17 170
- 1.86 1 11 cbr 1000 ------- 0 1.0 0.0 17 170
+ 1.86 2 11 cbr 1000 ------- 0 2.0 0.1 17 171
+ 1.86 3 11 cbr 1000 ------- 0 3.0 0.2 17 172
- 1.86 3 11 cbr 1000 ------- 0 3.0 0.2 17 172
+ 1.86 4 11 cbr 1000 ------- 0 4.0 0.3 17 173
+ 1.86 5 11 cbr 1000 ------- 0 5.0 0.4 17 174
+ 1.86 6 11 cbr 1000 ------- 0 6.0 0.5 17 175
- 1.86 6 11 cbr 1000 ------- 0 6.0 0.5 17 175
+ 1.86 7 11 cbr 1000 ------- 0 7.0 0.6 17 176
+ 1.86 8 11 cbr 1000 ------- 0 8.0 0.7 17 177
+ 1.86 9 11 cbr 1000 ------- 0 9.0 0.8 17 178
- 1.86 9 11 cbr 1000 ------- 0 9.0 0.8 17 178
+ 1.86 10 11 cbr 1000 ------- 0 10.0 0.9 17 179
r 1.860708 11 0 cbr 1000 ------- 0 5.0 0.4 14 144
- 1.8608 5 11 cbr 1000 ------- 0 5.0 0.4 15 154
r 1.870716 11 0 cbr 1000 ------- 0 3.0 0.2 17 172
r 1.879572 11 0 cbr 1000 ------- 0 6.0 0.5 17 175
r 1.896108 11 0 cbr 1000 ------- 0 9.0 0.8 17 178
r 1.905988 11 0 cbr 1000 ------- 0 1.0 0.0 17 170
r 1.9142 11 0 cbr 1000 ------- 0 5.0 0.4 15 154
- 1.914292 5 11 cbr 1000 ------- 0 5.0 0.4 16 164