h 0.5 1 41 cbr 1000 ------- 0 1.0 0.0 0 0
h 0.5 2 41 cbr 1000 ------- 0 2.0 0.1 0 1
h 0.5 3 41 cbr 1000 ------- 0 3.0 0.2 0 2
h 0.5 4 41 cbr 1000 ------- 0 4.0 0.3 0 3
h 0.5 5 41 cbr 1000 ------- 0 5.0 0.4 0 4
h 0.5 6 41 cbr 1000 ------- 0 6.0 0.5 0 5
h 0.5 7 41 cbr 1000 ------- 0 7.0 0.6 0 6
h 0.5 8 41 cbr 1000 ------- 0 8.0 0.7 0 7
h 0.5 9 41 cbr 1000 ------- 0 9.0 0.8 0 8
h 0.5 10 41 cbr 1000 ------- 0 10.0 0.9 0 9
h 0.5 11 41 cbr 1000 ------- 0 11.0 0.10 0 10
h 0.5 12 41 cbr 1000 ------- 0 12.0 0.11 0 11
h 0.5 13 41 cbr 1000 ------- 0 13.0 0.12 0 12
h 0.5 14 41 cbr 1000 ------- 0 14.0 0.13 0 13
h 0.5 15 41 cbr 1000 ------- 0 15.0 0.14 0 14
h 0.5 16 41 cbr 1000 ------- 0 16.0 0.15 0 15
h 0.5 17 41 cbr 1000 ------- 0 17.0 0.16 0 16
h 0.5 18 41 cbr 1000 ------- 0 18.0 0.17 0 17
h 0.5 19 41 cbr 1000 ------- 0 19.0 0.18 0 18
h 0.5 20 41 cbr 1000 ------- 0 20.0 0.19 0 19
h 0.5 21 41 cbr 1000 ------- 0 21.0 0.20 0 20
h 0.5 22 41 cbr 1000 ------- 0 22.0 0.21 0 21
h 0.5 23 41 cbr 1000 ------- 0 23.0 0.22 0 22
h 0.5 24 41 cbr 1000 ------- 0 24.0 0.23 0 23
h 0.5 25 41 cbr 1000 ------- 0 25.0 0.24 0 24
h 0.5 26 41 cbr 1000 ------- 0 26.0 0.25 0 25
h 0.5 27 41 cbr 1000 ------- 0 27.0 0.26 0 26
h 0.5 28 41 cbr 1000 ------- 0 28.0 0.27 0 27
h 0.5 29 41 cbr 1000 ------- 0 29.0 0.28 0 28
h 0.5 30 41 cbr 1000 ------- 0 30.0 0.29 0 29
h 0.5 31 41 cbr 1000 ------- 0 31.0 0.30 0 30
h 0.5 32 41 cbr 1000 ------- 0 32.0 0.31 0 31
h 0.5 33 41 cbr 1000 ------- 0 33.0 0.32 0 32
h 0.5 34 41 cbr 1000 ------- 0 34.0 0.33 0 33
h 0.5 35 41 cbr 1000 ------- 0 35.0 0.34 0 34
h 0.5 36 41 cbr 1000 ------- 0 36.0 0.35 0 35
h 0.5 37 41 cbr 1000 ------- 0 37.0 0.36 0 36
h 0.5 38 41 cbr 1000 ------- 0 38.0 0.37 0 37
h 0.5 39 41 cbr 1000 ------- 0 39.0 0.38 0 38
h 0.5 40 41 cbr 1000 ------- 0 40.0 0.39 0 39
+ 0.5 1 41 cbr 1000 ------- 0 1.0 0.0 0 0
- 0.5 1 41 cbr 1000 ------- 0 1.0 0.0 0 0
+ 0.5 2 41 cbr 1000 ------- 0 2.0 0.1 0 1
- 0.5 2 41 cbr 1000 ------- 0 2.0 0.1 0 1
+ 0.5 3 41 cbr 1000 ------- 0 3.0 0.2 0 2
- 0.5 3 41 cbr 1000 ------- 0 3.0 0.2 0 2
+ 0.5 4 41 cbr 1000 ------- 0 4.0 0.3 0 3
- 0.5 4 41 cbr 1000 ------- 0 4.0 0.3 0 3
+ 0.5 5 41 cbr 1000 ------- 0 5.0 0.4 0 4
- 0.5 5 41 cbr 1000 ------- 0 5.0 0.4 0 4
+ 0.5 6 41 cbr 1000 ------- 0 6.0 0.5 0 5
- 0.5 6 41 cbr 1000 ------- 0 6.0 0.5 0 5
+ 0.5 7 41 cbr 1000 ------- 0 7.0 0.6 0 6
- 0.5 7 41 cbr 1000 ------- 0 7.0 0.6 0 6
+ 0.5 8 41 cbr 1000 ------- 0 8.0 0.7 0 7
- 0.5 8 41 cbr 1000 ------- 0 8.0 0.7 0 7
+ 0.5 9 41 cbr 1000 ------- 0 9.0 0.8 0 8
- 0.5 9 41 cbr 1000 ------- 0 9.0 0.8 0 8
+ 0.5 10 41 cbr 1000 ------- 0 10.0 0.9 0 9
- 0.5 10 41 cbr 1000 ------- 0 10.0 0.9 0 9
+ 0.5 11 41 cbr 1000 ------- 0 11.0 0.10 0 10
- 0.5 11 41 cbr 1000 ------- 0 11.0 0.10 0 10
+ 0.5 12 41 cbr 1000 ------- 0 12.0 0.11 0 11
- 0.5 12 41 cbr 1000 ------- 0 12.0 0.11 0 11
+ 0.5 13 41 cbr 1000 ------- 0 13.0 0.12 0 12
- 0.5 13 41 cbr 1000 ------- 0 13.0 0.12 0 12
+ 0.5 14 41 cbr 1000 ------- 0 14.0 0.13 0 13
- 0.5 14 41 cbr 1000 ------- 0 14.0 0.13 0 13
+ 0.5 15 41 cbr 1000 ------- 0 15.0 0.14 0 14
- 0.5 15 41 cbr 1000 ------- 0 15.0 0.14 0 14
+ 0.5 16 41 cbr 1000 ------- 0 16.0 0.15 0 15
- 0.5 16 41 cbr 1000 ------- 0 16.0 0.15 0 15
+ 0.5 17 41 cbr 1000 ------- 0 17.0 0.16 0 16
- 0.5 17 41 cbr 1000 ------- 0 17.0 0.16 0 16
+ 0.5 18 41 cbr 1000 ------- 0 18.0 0.17 0 17
- 0.5 18 41 cbr 1000 ------- 0 18.0 0.17 0 17
+ 0.5 19 41 cbr 1000 ------- 0 19.0 0.18 0 18
- 0.5 19 41 cbr 1000 ------- 0 19.0 0.18 0 18
+ 0.5 20 41 cbr 1000 ------- 0 20.0 0.19 0 19
- 0.5 20 41 cbr 1000 ------- 0 20.0 0.19 0 19
+ 0.5 21 41 cbr 1000 ------- 0 21.0 0.20 0 20
- 0.5 21 41 cbr 1000 ------- 0 21.0 0.20 0 20
+ 0.5 22 41 cbr 1000 ------- 0 22.0 0.21 0 21
- 0.5 22 41 cbr 1000 ------- 0 22.0 0.21 0 21
+ 0.5 23 41 cbr 1000 ------- 0 23.0 0.22 0 22
- 0.5 23 41 cbr 1000 ------- 0 23.0 0.22 0 22
+ 0.5 24 41 cbr 1000 ------- 0 24.0 0.23 0 23
- 0.5 24 41 cbr 1000 ------- 0 24.0 0.23 0 23
+ 0.5 25 41 cbr 1000 ------- 0 25.0 0.24 0 24
- 0.5 25 41 cbr 1000 ------- 0 25.0 0.24 0 24
+ 0.5 26 41 cbr 1000 ------- 0 26.0 0.25 0 25
- 0.5 26 41 cbr 1000 ------- 0 26.0 0.25 0 25
+ 0.5 27 41 cbr 1000 ------- 0 27.0 0.26 0 26
- 0.5 27 41 cbr 1000 ------- 0 27.0 0.26 0 26
+ 0.5 28 41 cbr 1000 ------- 0 28.0 0.27 0 27
- 0.5 28 41 cbr 1000 ------- 0 28.0 0.27 0 27
+ 0.5 29 41 cbr 1000 ------- 0 29.0 0.28 0 28
- 0.5 29 41 cbr 1000 ------- 0 29.0 0.28 0 28
+ 0.5 30 41 cbr 1000 ------- 0 30.0 0.29 0 29
- 0.5 30 41 cbr 1000 ------- 0 30.0 0.29 0 29
+ 0.5 31 41 cbr 1000 ------- 0 31.0 0.30 0 30
- 0.5 31 41 cbr 1000 ------- 0 31.0 0.30 0 30
+ 0.5 32 41 cbr 1000 ------- 0 32.0 0.31 0 31
- 0.5 32 41 cbr 1000 ------- 0 32.0 0.31 0 31
+ 0.5 33 41 cbr 1000 ------- 0 33.0 0.32 0 32
- 0.5 33 41 cbr 1000 ------- 0 33.0 0.32 0 32
+ 0.5 34 41 cbr 1000 ------- 0 34.0 0.33 0 33
- 0.5 34 41 cbr 1000 ------- 0 34.0 0.33 0 33
+ 0.5 35 41 cbr 1000 ------- 0 35.0 0.34 0 34
- 0.5 35 41 cbr 1000 ------- 0 35.0 0.34 0 34
+ 0.5 36 41 cbr 1000 ------- 0 36.0 0.35 0 35
- 0.5 36 41 cbr 1000 ------- 0 36.0 0.35 0 35
+ 0.5 37 41 cbr 1000 ------- 0 37.0 0.36 0 36
- 0.5 37 41 cbr 1000 ------- 0 37.0 0.36 0 36
+ 0.5 38 41 cbr 1000 ------- 0 38.0 0.37 0 37
- 0.5 38 41 cbr 1000 ------- 0 38.0 0.37 0 37
+ 0.5 39 41 cbr 1000 ------- 0 39.0 0.38 0 38
- 0.5 39 41 cbr 1000 ------- 0 39.0 0.38 0 38
+ 0.5 40 41 cbr 1000 ------- 0 40.0 0.39 0 39
- 0.5 40 41 cbr 1000 ------- 0 40.0 0.39 0 39
r 0.509668 41 0 cbr 1000 ------- 0 23.0 0.22 0 22
r 0.518524 41 0 cbr 1000 ------- 0 24.0 0.23 0 23
r 0.526868 41 0 cbr 1000 ------- 0 27.0 0.26 0 26
r 0.535212 41 0 cbr 1000 ------- 0 14.0 0.13 0 13
r 0.546116 41 0 cbr 1000 ------- 0 12.0 0.11 0 11
r 0.554972 41 0 cbr 1000 ------- 0 9.0 0.8 0 8
r 0.564396 41 0 cbr 1000 ------- 0 22.0 0.21 0 21
r 0.573916 41 0 cbr 1000 ------- 0 36.0 0.35 0 35
h 0.58 1 41 cbr 1000 ------- 0 1.0 0.0 1 40
h 0.58 2 41 cbr 1000 ------- 0 2.0 0.1 1 41
h 0.58 3 41 cbr 1000 ------- 0 3.0 0.2 1 42
h 0.58 4 41 cbr 1000 ------- 0 4.0 0.3 1 43
h 0.58 5 41 cbr 1000 ------- 0 5.0 0.4 1 44
h 0.58 6 41 cbr 1000 ------- 0 6.0 0.5 1 45
h 0.58 7 41 cbr 1000 ------- 0 7.0 0.6 1 46
h 0.58 8 41 cbr 1000 ------- 0 8.0 0.7 1 47
h 0.58 9 41 cbr 1000 ------- 0 9.0 0.8 1 48
h 0.58 10 41 cbr 1000 ------- 0 10.0 0.9 1 49
h 0.58 11 41 cbr 1000 ------- 0 11.0 0.10 1 50
h 0.58 12 41 cbr 1000 ------- 0 12.0 0.11 1 51
h 0.58 13 41 cbr 1000 ------- 0 13.0 0.12 1 52
h 0.58 14 41 cbr 1000 ------- 0 14.0 0.13 1 53
h 0.58 15 41 cbr 1000 ------- 0 15.0 0.14 1 54
h 0.58 16 41 cbr 1000 ------- 0 16.0 0.15 1 55
h 0.58 17 41 cbr 1000 ------- 0 17.0 0.16 1 56
h 0.58 18 41 cbr 1000 ------- 0 18.0 0.17 1 57
h 0.58 19 41 cbr 1000 ------- 0 19.0 0.18 1 58
h 0.58 20 41 cbr 1000 ------- 0 20.0 0.19 1 59
h 0.58 21 41 cbr 1000 ------- 0 21.0 0.20 1 60
h 0.58 22 41 cbr 1000 ------- 0 22.0 0.21 1 61
h 0.58 23 41 cbr 1000 ------- 0 23.0 0.22 1 62
h 0.58 24 41 cbr 1000 ------- 0 24.0 0.23 1 63
h 0.58 25 41 cbr 1000 ------- 0 25.0 0.24 1 64
h 0.58 26 41 cbr 1000 ------- 0 26.0 0.25 1 65
h 0.58 27 41 cbr 1000 ------- 0 27.0 0.26 1 66
h 0.58 28 41 cbr 1000 ------- 0 28.0 0.27 1 67
h 0.58 29 41 cbr 1000 ------- 0 29.0 0.28 1 68
h 0.58 30 41 cbr 1000 ------- 0 30.0 0.29 1 69
h 0.58 31 41 cbr 1000 ------- 0 31.0 0.30 1 70
h 0.58 32 41 cbr 1000 ------- 0 32.0 0.31 1 71
h 0.58 33 41 cbr 1000 ------- 0 33.0 0.32 1 72
h 0.58 34 41 cbr 1000 ------- 0 34.0 0.33 1 73
h 0.58 35 41 cbr 1000 ------- 0 35.0 0.34 1 74
h 0.58 36 41 cbr 1000 ------- 0 36.0 0.35 1 75
h 0.58 37 41 cbr 1000 ------- 0 37.0 0.36 1 76
h 0.58 38 41 cbr 1000 ------- 0 38.0 0.37 1 77
h 0.58 39 41 cbr 1000 ------- 0 39.0 0.38 1 78
h 0.58 40 41 cbr 1000 ------- 0 40.0 0.39 1 79
+ 0.58 1 41 cbr 1000 ------- 0 1.0 0.0 1 40
+ 0.58 2 41 cbr 1000 ------- 0 2.0 0.1 1 41
+ 0.58 3 41 cbr 1000 ------- 0 3.0 0.2 1 42
+ 0.58 4 41 cbr 1000 ------- 0 4.0 0.3 1 43
+ 0.58 5 41 cbr 1000 ------- 0 5.0 0.4 1 44
+ 0.58 6 41 cbr 1000 ------- 0 6.0 0.5 1 45
+ 0.58 7 41 cbr 1000 ------- 0 7.0 0.6 1 46
+ 0.58 8 41 cbr 1000 ------- 0 8.0 0.7 1 47
+ 0.58 9 41 cbr 1000 ------- 0 9.0 0.8 1 48
- 0.58 9 41 cbr 1000 ------- 0 9.0 0.8 1 48
+ 0.58 10 41 cbr 1000 ------- 0 10.0 0.9 1 49
+ 0.58 11 41 cbr 1000 ------- 0 11.0 0.10 1 50
+ 0.58 12 41 cbr 1000 ------- 0 12.0 0.11 1 51
- 0.58 12 41 cbr 1000 ------- 0 12.0 0.11 1 51
+ 0.58 13 41 cbr 1000 ------- 0 13.0 0.12 1 52
+ 0.58 14 41 cbr 1000 ------- 0 14.0 0.13 1 53
- 0.58 14 41 cbr 1000 ------- 0 14.0 0.13 1 53
+ 0.58 15 41 cbr 1000 ------- 0 15.0 0.14 1 54
+ 0.58 16 41 cbr 1000 ------- 0 16.0 0.15 1 55
+ 0.58 17 41 cbr 1000 ------- 0 17.0 0.16 1 56
+ 0.58 18 41 cbr 1000 ------- 0 18.0 0.17 1 57
+ 0.58 19 41 cbr 1000 ------- 0 19.0 0.18 1 58
+ 0.58 20 41 cbr 1000 ------- 0 20.0 0.19 1 59
+ 0.58 21 41 cbr 1000 ------- 0 21.0 0.20 1 60
+ 0.58 22 41 cbr 1000 ------- 0 22.0 0.21 1 61
- 0.58 22 41 cbr 1000 ------- 0 22.0 0.21 1 61
+ 0.58 23 41 cbr 1000 ------- 0 23.0 0.22 1 62
- 0.58 23 41 cbr 1000 ------- 0 23.0 0.22 1 62
+ 0.58 24 41 cbr 1000 ------- 0 24.0 0.23 1 63
- 0.58 24 41 cbr 1000 ------- 0 24.0 0.23 1 63
+ 0.58 25 41 cbr 1000 ------- 0 25.0 0.24 1 64
+ 0.58 26 41 cbr 1000 ------- 0 26.0 0.25 1 65
+ 0.58 27 41 cbr 1000 ------- 0 27.0 0.26 1 66
- 0.58 27 41 cbr 1000 ------- 0 27.0 0.26 1 66
+ 0.58 28 41 cbr 1000 ------- 0 28.0 0.27 1 67
+ 0.58 29 41 cbr 1000 ------- 0 29.0 0.28 1 68
+ 0.58 30 41 cbr 1000 ------- 0 30.0 0.29 1 69
+ 0.58 31 41 cbr 1000 ------- 0 31.0 0.30 1 70
+ 0.58 32 41 cbr 1000 ------- 0 32.0 0.31 1 71
+ 0.58 33 41 cbr 1000 ------- 0 33.0 0.32 1 72
+ 0.58 34 41 cbr 1000 ------- 0 34.0 0.33 1 73
+ 0.58 35 41 cbr 1000 ------- 0 35.0 0.34 1 74
+ 0.58 36 41 cbr 1000 ------- 0 36.0 0.35 1 75
- 0.58 36 41 cbr 1000 ------- 0 36.0 0.35 1 75
+ 0.58 37 41 cbr 1000 ------- 0 37.0 0.36 1 76
+ 0.58 38 41 cbr 1000 ------- 0 38.0 0.37 1 77
+ 0.58 39 41 cbr 1000 ------- 0 39.0 0.38 1 78
+ 0.58 40 41 cbr 1000 ------- 0 40.0 0.39 1 79
r 0.583132 41 0 cbr 1000 ------- 0 3.0 0.2 0 2
- 0.583224 3 41 cbr 1000 ------- 0 3.0 0.2 1 42
r 0.591604 41 0 cbr 1000 ------- 0 12.0 0.11 1 51
r 0.599948 41 0 cbr 1000 ------- 0 27.0 0.26 1 66
r 0.608804 41 0 cbr 1000 ------- 0 9.0 0.8 1 48
r 0.61766 41 0 cbr 1000 ------- 0 23.0 0.22 1 62
r 0.626364 41 0 cbr 1000 ------- 0 34.0 0.33 0 33
- 0.626456 34 41 cbr 1000 ------- 0 34.0 0.33 1 73
r 0.636604 41 0 cbr 1000 ------- 0 30.0 0.29 0 29
- 0.636696 30 41 cbr 1000 ------- 0 30.0 0.29 1 69
r 0.644944 41 0 cbr 1000 ------- 0 34.0 0.33 1 73
r 0.653288 41 0 cbr 1000 ------- 0 30.0 0.29 1 69
h 0.66 1 41 cbr 1000 ------- 0 1.0 0.0 2 80
h 0.66 2 41 cbr 1000 ------- 0 2.0 0.1 2 81
h 0.66 3 41 cbr 1000 ------- 0 3.0 0.2 2 82
h 0.66 4 41 cbr 1000 ------- 0 4.0 0.3 2 83
h 0.66 5 41 cbr 1000 ------- 0 5.0 0.4 2 84
h 0.66 6 41 cbr 1000 ------- 0 6.0 0.5 2 85
h 0.66 7 41 cbr 1000 ------- 0 7.0 0.6 2 86
h 0.66 8 41 cbr 1000 ------- 0 8.0 0.7 2 87
h 0.66 9 41 cbr 1000 ------- 0 9.0 0.8 2 88
h 0.66 10 41 cbr 1000 ------- 0 10.0 0.9 2 89
h 0.66 11 41 cbr 1000 ------- 0 11.0 0.10 2 90
h 0.66 12 41 cbr 1000 ------- 0 12.0 0.11 2 91
h 0.66 13 41 cbr 1000 ------- 0 13.0 0.12 2 92
h 0.66 14 41 cbr 1000 ------- 0 14.0 0.13 2 93
h 0.66 15 41 cbr 1000 ------- 0 15.0 0.14 2 94
h 0.66 16 41 cbr 1000 ------- 0 16.0 0.15 2 95
h 0.66 17 41 cbr 1000 ------- 0 17.0 0.16 2 96
h 0.66 18 41 cbr 1000 ------- 0 18.0 0.17 2 97
h 0.66 19 41 cbr 1000 ------- 0 19.0 0.18 2 98
h 0.66 20 41 cbr 1000 ------- 0 20.0 0.19 2 99
h 0.66 21 41 cbr 1000 ------- 0 21.0 0.20 2 100
h 0.66 22 41 cbr 1000 ------- 0 22.0 0.21 2 101
h 0.66 23 41 cbr 1000 ------- 0 23.0 0.22 2 102
h 0.66 24 41 cbr 1000 ------- 0 24.0 0.23 2 103
h 0.66 25 41 cbr 1000 ------- 0 25.0 0.24 2 104
h 0.66 26 41 cbr 1000 ------- 0 26.0 0.25 2 105
h 0.66 27 41 cbr 1000 ------- 0 27.0 0.26 2 106
h 0.66 28 41 cbr 1000 ------- 0 28.0 0.27 2 107
h 0.66 29 41 cbr 1000 ------- 0 29.0 0.28 2 108
h 0.66 30 41 cbr 1000 ------- 0 30.0 0.29 2 109
h 0.66 31 41 cbr 1000 ------- 0 31.0 0.30 2 110
h 0.66 32 41 cbr 1000 ------- 0 32.0 0.31 2 111
h 0.66 33 41 cbr 1000 ------- 0 33.0 0.32 2 112
h 0.66 34 41 cbr 1000 ------- 0 34.0 0.33 2 113
h 0.66 35 41 cbr 1000 ------- 0 35.0 0.34 2 114
h 0.66 36 41 cbr 1000 ------- 0 36.0 0.35 2 115
h 0.66 37 41 cbr 1000 ------- 0 37.0 0.36 2 116
h 0.66 38 41 cbr 1000 ------- 0 38.0 0.37 2 117
h 0.66 39 41 cbr 1000 ------- 0 39.0 0.38 2 118
h 0.66 40 41 cbr 1000 ------- 0 40.0 0.39 2 119
+ 0.66 1 41 cbr 1000 ------- 0 1.0 0.0 2 80
+ 0.66 2 41 cbr 1000 ------- 0 2.0 0.1 2 81
+ 0.66 3 41 cbr 1000 ------- 0 3.0 0.2 2 82
+ 0.66 4 41 cbr 1000 ------- 0 4.0 0.3 2 83
+ 0.66 5 41 cbr 1000 ------- 0 5.0 0.4 2 84
+ 0.66 6 41 cbr 1000 ------- 0 6.0 0.5 2 85
+ 0.66 7 41 cbr 1000 ------- 0 7.0 0.6 2 86
+ 0.66 8 41 cbr 1000 ------- 0 8.0 0.7 2 87
+ 0.66 9 41 cbr 1000 ------- 0 9.0 0.8 2 88
- 0.66 9 41 cbr 1000 ------- 0 9.0 0.8 2 88
+ 0.66 10 41 cbr 1000 ------- 0 10.0 0.9 2 89
+ 0.66 11 41 cbr 1000 ------- 0 11.0 0.10 2 90
+ 0.66 12 41 cbr 1000 ------- 0 12.0 0.11 2 91
- 0.66 12 41 cbr 1000 ------- 0 12.0 0.11 2 91
+ 0.66 13 41 cbr 1000 ------- 0 13.0 0.12 2 92
+ 0.66 14 41 cbr 1000 ------- 0 14.0 0.13 2 93
+ 0.66 15 41 cbr 1000 ------- 0 15.0 0.14 2 94
+ 0.66 16 41 cbr 1000 ------- 0 16.0 0.15 2 95
+ 0.66 17 41 cbr 1000 ------- 0 17.0 0.16 2 96
+ 0.66 18 41 cbr 1000 ------- 0 18.0 0.17 2 97
+ 0.66 19 41 cbr 1000 ------- 0 19.0 0.18 2 98
+ 0.66 20 41 cbr 1000 ------- 0 20.0 0.19 2 99
+ 0.66 21 41 cbr 1000 ------- 0 21.0 0.20 2 100
+ 0.66 22 41 cbr 1000 ------- 0 22.0 0.21 2 101
+ 0.66 23 41 cbr 1000 ------- 0 23.0 0.22 2 102
- 0.66 23 41 cbr 1000 ------- 0 23.0 0.22 2 102
+ 0.66 24 41 cbr 1000 ------- 0 24.0 0.23 2 103
+ 0.66 25 41 cbr 1000 ------- 0 25.0 0.24 2 104
+ 0.66 26 41 cbr 1000 ------- 0 26.0 0.25 2 105
+ 0.66 27 41 cbr 1000 ------- 0 27.0 0.26 2 106
- 0.66 27 41 cbr 1000 ------- 0 27.0 0.26 2 106
+ 0.66 28 41 cbr 1000 ------- 0 28.0 0.27 2 107
+ 0.66 29 41 cbr 1000 ------- 0 29.0 0.28 2 108
+ 0.66 30 41 cbr 1000 ------- 0 30.0 0.29 2 109
- 0.66 30 41 cbr 1000 ------- 0 30.0 0.29 2 109
+ 0.66 31 41 cbr 1000 ------- 0 31.0 0.30 2 110
+ 0.66 32 41 cbr 1000 ------- 0 32.0 0.31 2 111
+ 0.66 33 41 cbr 1000 ------- 0 33.0 0.32 2 112
+ 0.66 34 41 cbr 1000 ------- 0 34.0 0.33 2 113
- 0.66 34 41 cbr 1000 ------- 0 34.0 0.33 2 113
+ 0.66 35 41 cbr 1000 ------- 0 35.0 0.34 2 114
+ 0.66 36 41 cbr 1000 ------- 0 36.0 0.35 2 115
+ 0.66 37 41 cbr 1000 ------- 0 37.0 0.36 2 116
+ 0.66 38 41 cbr 1000 ------- 0 38.0 0.37 2 117
+ 0.66 39 41 cbr 1000 ------- 0 39.0 0.38 2 118
+ 0.66 40 41 cbr 1000 ------- 0 40.0 0.39 2 119
r 0.662352 41 0 cbr 1000 ------- 0 3.0 0.2 1 42
- 0.662444 3 41 cbr 1000 ------- 0 3.0 0.2 2 82
r 0.671336 41 0 cbr 1000 ------- 0 30.0 0.29 2 109
r 0.67968 41 0 cbr 1000 ------- 0 12.0 0.11 2 91
r 0.688536 41 0 cbr 1000 ------- 0 27.0 0.26 2 106
r 0.69768 41 0 cbr 1000 ------- 0 14.0 0.13 1 53
- 0.697772 14 41 cbr 1000 ------- 0 14.0 0.13 2 93
r 0.706608 41 0 cbr 1000 ------- 0 34.0 0.33 2 113
r 0.7153 41 0 cbr 1000 ------- 0 11.0 0.10 0 10
- 0.715392 11 41 cbr 1000 ------- 0 11.0 0.10 1 50
r 0.723644 41 0 cbr 1000 ------- 0 11.0 0.10 1 50
- 0.723736 11 41 cbr 1000 ------- 0 11.0 0.10 2 90
r 0.731988 41 0 cbr 1000 ------- 0 11.0 0.10 2 90
h 0.74 1 41 cbr 1000 ------- 0 1.0 0.0 3 120
h 0.74 2 41 cbr 1000 ------- 0 2.0 0.1 3 121
h 0.74 3 41 cbr 1000 ------- 0 3.0 0.2 3 122
h 0.74 4 41 cbr 1000 ------- 0 4.0 0.3 3 123
h 0.74 5 41 cbr 1000 ------- 0 5.0 0.4 3 124
h 0.74 6 41 cbr 1000 ------- 0 6.0 0.5 3 125
h 0.74 7 41 cbr 1000 ------- 0 7.0 0.6 3 126
h 0.74 8 41 cbr 1000 ------- 0 8.0 0.7 3 127
h 0.74 9 41 cbr 1000 ------- 0 9.0 0.8 3 128
h 0.74 10 41 cbr 1000 ------- 0 10.0 0.9 3 129
h 0.74 11 41 cbr 1000 ------- 0 11.0 0.10 3 130
h 0.74 12 41 cbr 1000 ------- 0 12.0 0.11 3 131
h 0.74 13 41 cbr 1000 ------- 0 13.0 0.12 3 132
h 0.74 14 41 cbr 1000 ------- 0 14.0 0.13 3 133
h 0.74 15 41 cbr 1000 ------- 0 15.0 0.14 3 134
h 0.74 16 41 cbr 1000 ------- 0 16.0 0.15 3 135
h 0.74 17 41 cbr 1000 ------- 0 17.0 0.16 3 136
h 0.74 18 41 cbr 1000 ------- 0 18.0 0.17 3 137
h 0.74 19 41 cbr 1000 ------- 0 19.0 0.18 3 138
h 0.74 20 41 cbr 1000 ------- 0 20.0 0.19 3 139
h 0.74 21 41 cbr 1000 ------- 0 21.0 0.20 3 140
h 0.74 22 41 cbr 1000 ------- 0 22.0 0.21 3 141
h 0.74 23 41 cbr 1000 ------- 0 23.0 0.22 3 142
h 0.74 24 41 cbr 1000 ------- 0 24.0 0.23 3 143
h 0.74 25 41 cbr 1000 ------- 0 25.0 0.24 3 144
h 0.74 26 41 cbr 1000 ------- 0 26.0 0.25 3 145
h 0.74 27 41 cbr 1000 ------- 0 27.0 0.26 3 146
h 0.74 28 41 cbr 1000 ------- 0 28.0 0.27 3 147
h 0.74 29 41 cbr 1000 ------- 0 29.0 0.28 3 148
h 0.74 30 41 cbr 1000 ------- 0 30.0 0.29 3 149
h 0.74 31 41 cbr 1000 ------- 0 31.0 0.30 3 150
h 0.74 32 41 cbr 1000 ------- 0 32.0 0.31 3 151
h 0.74 33 41 cbr 1000 ------- 0 33.0 0.32 3 152
h 0.74 34 41 cbr 1000 ------- 0 34.0 0.33 3 153
h 0.74 35 41 cbr 1000 ------- 0 35.0 0.34 3 154
h 0.74 36 41 cbr 1000 ------- 0 36.0 0.35 3 155
h 0.74 37 41 cbr 1000 ------- 0 37.0 0.36 3 156
h 0.74 38 41 cbr 1000 ------- 0 38.0 0.37 3 157
h 0.74 39 41 cbr 1000 ------- 0 39.0 0.38 3 158
h 0.74 40 41 cbr 1000 ------- 0 40.0 0.39 3 159
+ 0.74 1 41 cbr 1000 ------- 0 1.0 0.0 3 120
+ 0.74 2 41 cbr 1000 ------- 0 2.0 0.1 3 121
+ 0.74 3 41 cbr 1000 ------- 0 3.0 0.2 3 122
+ 0.74 4 41 cbr 1000 ------- 0 4.0 0.3 3 123
+ 0.74 5 41 cbr 1000 ------- 0 5.0 0.4 3 124
+ 0.74 6 41 cbr 1000 ------- 0 6.0 0.5 3 125
+ 0.74 7 41 cbr 1000 ------- 0 7.0 0.6 3 126
+ 0.74 8 41 cbr 1000 ------- 0 8.0 0.7 3 127
+ 0.74 9 41 cbr 1000 ------- 0 9.0 0.8 3 128
+ 0.74 10 41 cbr 1000 ------- 0 10.0 0.9 3 129
+ 0.74 11 41 cbr 1000 ------- 0 11.0 0.10 3 130
- 0.74 11 41 cbr 1000 ------- 0 11.0 0.10 3 130
+ 0.74 12 41 cbr 1000 ------- 0 12.0 0.11 3 131
- 0.74 12 41 cbr 1000 ------- 0 12.0 0.11 3 131
+ 0.74 13 41 cbr 1000 ------- 0 13.0 0.12 3 132
+ 0.74 14 41 cbr 1000 ------- 0 14.0 0.13 3 133
+ 0.74 15 41 cbr 1000 ------- 0 15.0 0.14 3 134
+ 0.74 16 41 cbr 1000 ------- 0 16.0 0.15 3 135
+ 0.74 17 41 cbr 1000 ------- 0 17.0 0.16 3 136
+ 0.74 18 41 cbr 1000 ------- 0 18.0 0.17 3 137
+ 0.74 19 41 cbr 1000 ------- 0 19.0 0.18 3 138
+ 0.74 20 41 cbr 1000 ------- 0 20.0 0.19 3 139
+ 0.74 21 41 cbr 1000 ------- 0 21.0 0.20 3 140
+ 0.74 22 41 cbr 1000 ------- 0 22.0 0.21 3 141
+ 0.74 23 41 cbr 1000 ------- 0 23.0 0.22 3 142
+ 0.74 24 41 cbr 1000 ------- 0 24.0 0.23 3 143
+ 0.74 25 41 cbr 1000 ------- 0 25.0 0.24 3 144
+ 0.74 26 41 cbr 1000 ------- 0 26.0 0.25 3 145
+ 0.74 27 41 cbr 1000 ------- 0 27.0 0.26 3 146
- 0.74 27 41 cbr 1000 ------- 0 27.0 0.26 3 146
+ 0.74 28 41 cbr 1000 ------- 0 28.0 0.27 3 147
+ 0.74 29 41 cbr 1000 ------- 0 29.0 0.28 3 148
+ 0.74 30 41 cbr 1000 ------- 0 30.0 0.29 3 149
- 0.74 30 41 cbr 1000 ------- 0 30.0 0.29 3 149
+ 0.74 31 41 cbr 1000 ------- 0 31.0 0.30 3 150
+ 0.74 32 41 cbr 1000 ------- 0 32.0 0.31 3 151
+ 0.74 33 41 cbr 1000 ------- 0 33.0 0.32 3 152
+ 0.74 34 41 cbr 1000 ------- 0 34.0 0.33 3 153
- 0.74 34 41 cbr 1000 ------- 0 34.0 0.33 3 153
+ 0.74 35 41 cbr 1000 ------- 0 35.0 0.34 3 154
+ 0.74 36 41 cbr 1000 ------- 0 36.0 0.35 3 155
+ 0.74 37 41 cbr 1000 ------- 0 37.0 0.36 3 156
+ 0.74 38 41 cbr 1000 ------- 0 38.0 0.37 3 157
+ 0.74 39 41 cbr 1000 ------- 0 39.0 0.38 3 158
+ 0.74 40 41 cbr 1000 ------- 0 40.0 0.39 3 159
r 0.741712 41 0 cbr 1000 ------- 0 23.0 0.22 2 102
- 0.741804 23 41 cbr 1000 ------- 0 23.0 0.22 3 142
r 0.750184 41 0 cbr 1000 ------- 0 23.0 0.22 3 142
r 0.758528 41 0 cbr 1000 ------- 0 12.0 0.11 3 131
r 0.767384 41 0 cbr 1000 ------- 0 30.0 0.29 3 149
r 0.777264 41 0 cbr 1000 ------- 0 11.0 0.10 3 130
r 0.791524 41 0 cbr 1000 ------- 0 28.0 0.27 0 27
- 0.791616 28 41 cbr 1000 ------- 0 28.0 0.27 1 67
r 0.799868 41 0 cbr 1000 ------- 0 28.0 0.27 1 67
- 0.79996 28 41 cbr 1000 ------- 0 28.0 0.27 2 107
r 0.808724 41 0 cbr 1000 ------- 0 28.0 0.27 2 107
- 0.808816 28 41 cbr 1000 ------- 0 28.0 0.27 3 147
r 0.81758 41 0 cbr 1000 ------- 0 28.0 0.27 3 147
h 0.82 1 41 cbr 1000 ------- 0 1.0 0.0 4 160
h 0.82 2 41 cbr 1000 ------- 0 2.0 0.1 4 161
h 0.82 3 41 cbr 1000 ------- 0 3.0 0.2 4 162
h 0.82 4 41 cbr 1000 ------- 0 4.0 0.3 4 163
h 0.82 5 41 cbr 1000 ------- 0 5.0 0.4 4 164
h 0.82 6 41 cbr 1000 ------- 0 6.0 0.5 4 165
h 0.82 7 41 cbr 1000 ------- 0 7.0 0.6 4 166
h 0.82 8 41 cbr 1000 ------- 0 8.0 0.7 4 167
h 0.82 9 41 cbr 1000 ------- 0 9.0 0.8 4 168
h 0.82 10 41 cbr 1000 ------- 0 10.0 0.9 4 169
h 0.82 11 41 cbr 1000 ------- 0 11.0 0.10 4 170
h 0.82 12 41 cbr 1000 ------- 0 12.0 0.11 4 171
h 0.82 13 41 cbr 1000 ------- 0 13.0 0.12 4 172
h 0.82 14 41 cbr 1000 ------- 0 14.0 0.13 4 173
h 0.82 15 41 cbr 1000 ------- 0 15.0 0.14 4 174
h 0.82 16 41 cbr 1000 ------- 0 16.0 0.15 4 175
h 0.82 17 41 cbr 1000 ------- 0 17.0 0.16 4 176
h 0.82 18 41 cbr 1000 ------- 0 18.0 0.17 4 177
h 0.82 19 41 cbr 1000 ------- 0 19.0 0.18 4 178
h 0.82 20 41 cbr 1000 ------- 0 20.0 0.19 4 179
h 0.82 21 41 cbr 1000 ------- 0 21.0 0.20 4 180
h 0.82 22 41 cbr 1000 ------- 0 22.0 0.21 4 181
h 0.82 23 41 cbr 1000 ------- 0 23.0 0.22 4 182
h 0.82 24 41 cbr 1000 ------- 0 24.0 0.23 4 183
h 0.82 25 41 cbr 1000 ------- 0 25.0 0.24 4 184
h 0.82 26 41 cbr 1000 ------- 0 26.0 0.25 4 185
h 0.82 27 41 cbr 1000 ------- 0 27.0 0.26 4 186
h 0.82 28 41 cbr 1000 ------- 0 28.0 0.27 4 187
h 0.82 29 41 cbr 1000 ------- 0 29.0 0.28 4 188
h 0.82 30 41 cbr 1000 ------- 0 30.0 0.29 4 189
h 0.82 31 41 cbr 1000 ------- 0 31.0 0.30 4 190
h 0.82 32 41 cbr 1000 ------- 0 32.0 0.31 4 191
h 0.82 33 41 cbr 1000 ------- 0 33.0 0.32 4 192
h 0.82 34 41 cbr 1000 ------- 0 34.0 0.33 4 193
h 0.82 35 41 cbr 1000 ------- 0 35.0 0.34 4 194
h 0.82 36 41 cbr 1000 ------- 0 36.0 0.35 4 195
h 0.82 37 41 cbr 1000 ------- 0 37.0 0.36 4 196
h 0.82 38 41 cbr 1000 ------- 0 38.0 0.37 4 197
h 0.82 39 41 cbr 1000 ------- 0 39.0 0.38 4 198
h 0.82 40 41 cbr 1000 ------- 0 40.0 0.39 4 199
+ 0.82 1 41 cbr 1000 ------- 0 1.0 0.0 4 160
+ 0.82 2 41 cbr 1000 ------- 0 2.0 0.1 4 161
+ 0.82 3 41 cbr 1000 ------- 0 3.0 0.2 4 162
+ 0.82 4 41 cbr 1000 ------- 0 4.0 0.3 4 163
+ 0.82 5 41 cbr 1000 ------- 0 5.0 0.4 4 164
+ 0.82 6 41 cbr 1000 ------- 0 6.0 0.5 4 165
+ 0.82 7 41 cbr 1000 ------- 0 7.0 0.6 4 166
+ 0.82 8 41 cbr 1000 ------- 0 8.0 0.7 4 167
+ 0.82 9 41 cbr 1000 ------- 0 9.0 0.8 4 168
+ 0.82 10 41 cbr 1000 ------- 0 10.0 0.9 4 169
+ 0.82 11 41 cbr 1000 ------- 0 11.0 0.10 4 170
- 0.82 11 41 cbr 1000 ------- 0 11.0 0.10 4 170
+ 0.82 12 41 cbr 1000 ------- 0 12.0 0.11 4 171
- 0.82 12 41 cbr 1000 ------- 0 12.0 0.11 4 171
+ 0.82 13 41 cbr 1000 ------- 0 13.0 0.12 4 172
+ 0.82 14 41 cbr 1000 ------- 0 14.0 0.13 4 173
+ 0.82 15 41 cbr 1000 ------- 0 15.0 0.14 4 174
+ 0.82 16 41 cbr 1000 ------- 0 16.0 0.15 4 175
+ 0.82 17 41 cbr 1000 ------- 0 17.0 0.16 4 176
+ 0.82 18 41 cbr 1000 ------- 0 18.0 0.17 4 177
+ 0.82 19 41 cbr 1000 ------- 0 19.0 0.18 4 178
+ 0.82 20 41 cbr 1000 ------- 0 20.0 0.19 4 179
+ 0.82 21 41 cbr 1000 ------- 0 21.0 0.20 4 180
+ 0.82 22 41 cbr 1000 ------- 0 22.0 0.21 4 181
+ 0.82 23 41 cbr 1000 ------- 0 23.0 0.22 4 182
- 0.82 23 41 cbr 1000 ------- 0 23.0 0.22 4 182
+ 0.82 24 41 cbr 1000 ------- 0 24.0 0.23 4 183
+ 0.82 25 41 cbr 1000 ------- 0 25.0 0.24 4 184
+ 0.82 26 41 cbr 1000 ------- 0 26.0 0.25 4 185
+ 0.82 27 41 cbr 1000 ------- 0 27.0 0.26 4 186
+ 0.82 28 41 cbr 1000 ------- 0 28.0 0.27 4 187
- 0.82 28 41 cbr 1000 ------- 0 28.0 0.27 4 187
+ 0.82 29 41 cbr 1000 ------- 0 29.0 0.28 4 188
+ 0.82 30 41 cbr 1000 ------- 0 30.0 0.29 4 189
- 0.82 30 41 cbr 1000 ------- 0 30.0 0.29 4 189
+ 0.82 31 41 cbr 1000 ------- 0 31.0 0.30 4 190
+ 0.82 32 41 cbr 1000 ------- 0 32.0 0.31 4 191
+ 0.82 33 41 cbr 1000 ------- 0 33.0 0.32 4 192
+ 0.82 34 41 cbr 1000 ------- 0 34.0 0.33 4 193
+ 0.82 35 41 cbr 1000 ------- 0 35.0 0.34 4 194
+ 0.82 36 41 cbr 1000 ------- 0 36.0 0.35 4 195
+ 0.82 37 41 cbr 1000 ------- 0 37.0 0.36 4 196
+ 0.82 38 41 cbr 1000 ------- 0 38.0 0.37 4 197
+ 0.82 39 41 cbr 1000 ------- 0 39.0 0.38 4 198
+ 0.82 40 41 cbr 1000 ------- 0 40.0 0.39 4 199
r 0.827216 41 0 cbr 1000 ------- 0 19.0 0.18 0 18
- 0.827308 19 41 cbr 1000 ------- 0 19.0 0.18 1 58
r 0.836332 41 0 cbr 1000 ------- 0 23.0 0.22 4 182
r 0.845188 41 0 cbr 1000 ------- 0 19.0 0.18 1 58
- 0.84528 19 41 cbr 1000 ------- 0 19.0 0.18 2 98
r 0.854044 41 0 cbr 1000 ------- 0 19.0 0.18 2 98
- 0.854136 19 41 cbr 1000 ------- 0 19.0 0.18 3 138
r 0.86354 41 0 cbr 1000 ------- 0 19.0 0.18 3 138
- 0.863632 19 41 cbr 1000 ------- 0 19.0 0.18 4 178
r 0.872396 41 0 cbr 1000 ------- 0 19.0 0.18 4 178
r 0.881764 41 0 cbr 1000 ------- 0 11.0 0.10 4 170
r 0.890704 41 0 cbr 1000 ------- 0 35.0 0.34 0 34
- 0.890796 35 41 cbr 1000 ------- 0 35.0 0.34 1 74
r 0.899048 41 0 cbr 1000 ------- 0 35.0 0.34 1 74
- 0.89914 35 41 cbr 1000 ------- 0 35.0 0.34 2 114
h 0.9 1 41 cbr 1000 ------- 0 1.0 0.0 5 200
h 0.9 2 41 cbr 1000 ------- 0 2.0 0.1 5 201
h 0.9 3 41 cbr 1000 ------- 0 3.0 0.2 5 202
h 0.9 4 41 cbr 1000 ------- 0 4.0 0.3 5 203
h 0.9 5 41 cbr 1000 ------- 0 5.0 0.4 5 204
h 0.9 6 41 cbr 1000 ------- 0 6.0 0.5 5 205
h 0.9 7 41 cbr 1000 ------- 0 7.0 0.6 5 206
h 0.9 8 41 cbr 1000 ------- 0 8.0 0.7 5 207
h 0.9 9 41 cbr 1000 ------- 0 9.0 0.8 5 208
h 0.9 10 41 cbr 1000 ------- 0 10.0 0.9 5 209
h 0.9 11 41 cbr 1000 ------- 0 11.0 0.10 5 210
h 0.9 12 41 cbr 1000 ------- 0 12.0 0.11 5 211
h 0.9 13 41 cbr 1000 ------- 0 13.0 0.12 5 212
h 0.9 14 41 cbr 1000 ------- 0 14.0 0.13 5 213
h 0.9 15 41 cbr 1000 ------- 0 15.0 0.14 5 214
h 0.9 16 41 cbr 1000 ------- 0 16.0 0.15 5 215
h 0.9 17 41 cbr 1000 ------- 0 17.0 0.16 5 216
h 0.9 18 41 cbr 1000 ------- 0 18.0 0.17 5 217
h 0.9 19 41 cbr 1000 ------- 0 19.0 0.18 5 218
h 0.9 20 41 cbr 1000 ------- 0 20.0 0.19 5 219
h 0.9 21 41 cbr 1000 ------- 0 21.0 0.20 5 220
h 0.9 22 41 cbr 1000 ------- 0 22.0 0.21 5 221
h 0.9 23 41 cbr 1000 ------- 0 23.0 0.22 5 222
h 0.9 24 41 cbr 1000 ------- 0 24.0 0.23 5 223
h 0.9 25 41 cbr 1000 ------- 0 25.0 0.24 5 224
h 0.9 26 41 cbr 1000 ------- 0 26.0 0.25 5 225
h 0.9 27 41 cbr 1000 ------- 0 27.0 0.26 5 226
h 0.9 28 41 cbr 1000 ------- 0 28.0 0.27 5 227
h 0.9 29 41 cbr 1000 ------- 0 29.0 0.28 5 228
h 0.9 30 41 cbr 1000 ------- 0 30.0 0.29 5 229
h 0.9 31 41 cbr 1000 ------- 0 31.0 0.30 5 230
h 0.9 32 41 cbr 1000 ------- 0 32.0 0.31 5 231
h 0.9 33 41 cbr 1000 ------- 0 33.0 0.32 5 232
h 0.9 34 41 cbr 1000 ------- 0 34.0 0.33 5 233
h 0.9 35 41 cbr 1000 ------- 0 35.0 0.34 5 234
h 0.9 36 41 cbr 1000 ------- 0 36.0 0.35 5 235
h 0.9 37 41 cbr 1000 ------- 0 37.0 0.36 5 236
h 0.9 38 41 cbr 1000 ------- 0 38.0 0.37 5 237
h 0.9 39 41 cbr 1000 ------- 0 39.0 0.38 5 238
h 0.9 40 41 cbr 1000 ------- 0 40.0 0.39 5 239
+ 0.9 1 41 cbr 1000 ------- 0 1.0 0.0 5 200
+ 0.9 2 41 cbr 1000 ------- 0 2.0 0.1 5 201
+ 0.9 3 41 cbr 1000 ------- 0 3.0 0.2 5 202
+ 0.9 4 41 cbr 1000 ------- 0 4.0 0.3 5 203
+ 0.9 5 41 cbr 1000 ------- 0 5.0 0.4 5 204
+ 0.9 6 41 cbr 1000 ------- 0 6.0 0.5 5 205
+ 0.9 7 41 cbr 1000 ------- 0 7.0 0.6 5 206
+ 0.9 8 41 cbr 1000 ------- 0 8.0 0.7 5 207
+ 0.9 9 41 cbr 1000 ------- 0 9.0 0.8 5 208
+ 0.9 10 41 cbr 1000 ------- 0 10.0 0.9 5 209
+ 0.9 11 41 cbr 1000 ------- 0 11.0 0.10 5 210
- 0.9 11 41 cbr 1000 ------- 0 11.0 0.10 5 210
+ 0.9 12 41 cbr 1000 ------- 0 12.0 0.11 5 211
+ 0.9 13 41 cbr 1000 ------- 0 13.0 0.12 5 212
+ 0.9 14 41 cbr 1000 ------- 0 14.0 0.13 5 213
+ 0.9 15 41 cbr 1000 ------- 0 15.0 0.14 5 214
+ 0.9 16 41 cbr 1000 ------- 0 16.0 0.15 5 215
+ 0.9 17 41 cbr 1000 ------- 0 17.0 0.16 5 216
+ 0.9 18 41 cbr 1000 ------- 0 18.0 0.17 5 217
+ 0.9 19 41 cbr 1000 ------- 0 19.0 0.18 5 218
- 0.9 19 41 cbr 1000 ------- 0 19.0 0.18 5 218
+ 0.9 20 41 cbr 1000 ------- 0 20.0 0.19 5 219
+ 0.9 21 41 cbr 1000 ------- 0 21.0 0.20 5 220
+ 0.9 22 41 cbr 1000 ------- 0 22.0 0.21 5 221
+ 0.9 23 41 cbr 1000 ------- 0 23.0 0.22 5 222
- 0.9 23 41 cbr 1000 ------- 0 23.0 0.22 5 222
+ 0.9 24 41 cbr 1000 ------- 0 24.0 0.23 5 223
+ 0.9 25 41 cbr 1000 ------- 0 25.0 0.24 5 224
+ 0.9 26 41 cbr 1000 ------- 0 26.0 0.25 5 225
+ 0.9 27 41 cbr 1000 ------- 0 27.0 0.26 5 226
+ 0.9 28 41 cbr 1000 ------- 0 28.0 0.27 5 227
+ 0.9 29 41 cbr 1000 ------- 0 29.0 0.28 5 228
+ 0.9 30 41 cbr 1000 ------- 0 30.0 0.29 5 229
+ 0.9 31 41 cbr 1000 ------- 0 31.0 0.30 5 230
+ 0.9 32 41 cbr 1000 ------- 0 32.0 0.31 5 231
+ 0.9 33 41 cbr 1000 ------- 0 33.0 0.32 5 232
+ 0.9 34 41 cbr 1000 ------- 0 34.0 0.33 5 233
+ 0.9 35 41 cbr 1000 ------- 0 35.0 0.34 5 234
+ 0.9 36 41 cbr 1000 ------- 0 36.0 0.35 5 235
+ 0.9 37 41 cbr 1000 ------- 0 37.0 0.36 5 236
+ 0.9 38 41 cbr 1000 ------- 0 38.0 0.37 5 237
+ 0.9 39 41 cbr 1000 ------- 0 39.0 0.38 5 238
+ 0.9 40 41 cbr 1000 ------- 0 40.0 0.39 5 239
r 0.907392 41 0 cbr 1000 ------- 0 35.0 0.34 2 114
- 0.907484 35 41 cbr 1000 ------- 0 35.0 0.34 3 154
r 0.91638 41 0 cbr 1000 ------- 0 23.0 0.22 5 222
r 0.927284 41 0 cbr 1000 ------- 0 11.0 0.10 5 210
r 0.937676 41 0 cbr 1000 ------- 0 35.0 0.34 3 154
- 0.937768 35 41 cbr 1000 ------- 0 35.0 0.34 4 194
r 0.94602 41 0 cbr 1000 ------- 0 35.0 0.34 4 194
- 0.946112 35 41 cbr 1000 ------- 0 35.0 0.34 5 234
r 0.954876 41 0 cbr 1000 ------- 0 35.0 0.34 5 234
r 0.963088 41 0 cbr 1000 ------- 0 19.0 0.18 5 218
h 0.98 1 41 cbr 1000 ------- 0 1.0 0.0 6 240
h 0.98 2 41 cbr 1000 ------- 0 2.0 0.1 6 241
h 0.98 3 41 cbr 1000 ------- 0 3.0 0.2 6 242
h 0.98 4 41 cbr 1000 ------- 0 4.0 0.3 6 243
h 0.98 5 41 cbr 1000 ------- 0 5.0 0.4 6 244
h 0.98 6 41 cbr 1000 ------- 0 6.0 0.5 6 245
h 0.98 7 41 cbr 1000 ------- 0 7.0 0.6 6 246
h 0.98 8 41 cbr 1000 ------- 0 8.0 0.7 6 247