h 0.5 1 3 cbr 1000 ------- 0 1.0 0.0 0 0
h 0.5 2 3 cbr 1000 ------- 0 2.0 0.1 0 1
+ 0.5 1 3 cbr 1000 ------- 0 1.0 0.0 0 0
- 0.5 1 3 cbr 1000 ------- 0 1.0 0.0 0 0
+ 0.5 2 3 cbr 1000 ------- 0 2.0 0.1 0 1
- 0.5 2 3 cbr 1000 ------- 0 2.0 0.1 0 1
r 0.509916 3 0 cbr 1000 ------- 0 1.0 0.0 0 0
h 0.516 1 3 cbr 1000 ------- 0 1.0 0.0 1 2
h 0.516 2 3 cbr 1000 ------- 0 2.0 0.1 1 3
+ 0.516 1 3 cbr 1000 ------- 0 1.0 0.0 1 2
- 0.516 1 3 cbr 1000 ------- 0 1.0 0.0 1 2
+ 0.516 2 3 cbr 1000 ------- 0 2.0 0.1 1 3
r 0.518128 3 0 cbr 1000 ------- 0 2.0 0.1 0 1
- 0.51822 2 3 cbr 1000 ------- 0 2.0 0.1 1 3
h 0.532 1 3 cbr 1000 ------- 0 1.0 0.0 2 4
h 0.532 2 3 cbr 1000 ------- 0 2.0 0.1 2 5
+ 0.532 1 3 cbr 1000 ------- 0 1.0 0.0 2 4
+ 0.532 2 3 cbr 1000 ------- 0 2.0 0.1 2 5
r 0.535056 3 0 cbr 1000 ------- 0 2.0 0.1 1 3
- 0.535148 2 3 cbr 1000 ------- 0 2.0 0.1 2 5
r 0.5434 3 0 cbr 1000 ------- 0 2.0 0.1 2 5
h 0.548 1 3 cbr 1000 ------- 0 1.0 0.0 3 6
h 0.548 2 3 cbr 1000 ------- 0 2.0 0.1 3 7
+ 0.548 1 3 cbr 1000 ------- 0 1.0 0.0 3 6
+ 0.548 2 3 cbr 1000 ------- 0 2.0 0.1 3 7
- 0.548 2 3 cbr 1000 ------- 0 2.0 0.1 3 7
r 0.555172 3 0 cbr 1000 ------- 0 1.0 0.0 1 2
- 0.555264 1 3 cbr 1000 ------- 0 1.0 0.0 2 4
h 0.564 1 3 cbr 1000 ------- 0 1.0 0.0 4 8
h 0.564 2 3 cbr 1000 ------- 0 2.0 0.1 4 9
+ 0.564 1 3 cbr 1000 ------- 0 1.0 0.0 4 8
+ 0.564 2 3 cbr 1000 ------- 0 2.0 0.1 4 9
r 0.564156 3 0 cbr 1000 ------- 0 1.0 0.0 2 4
- 0.564248 1 3 cbr 1000 ------- 0 1.0 0.0 3 6
r 0.573652 3 0 cbr 1000 ------- 0 1.0 0.0 3 6
- 0.573744 1 3 cbr 1000 ------- 0 1.0 0.0 4 8
h 0.58 1 3 cbr 1000 ------- 0 1.0 0.0 5 10
h 0.58 2 3 cbr 1000 ------- 0 2.0 0.1 5 11
+ 0.58 1 3 cbr 1000 ------- 0 1.0 0.0 5 10
+ 0.58 2 3 cbr 1000 ------- 0 2.0 0.1 5 11
r 0.582508 3 0 cbr 1000 ------- 0 1.0 0.0 4 8
- 0.5826 1 3 cbr 1000 ------- 0 1.0 0.0 5 10
r 0.590716 3 0 cbr 1000 ------- 0 1.0 0.0 5 10
h 0.596 1 3 cbr 1000 ------- 0 1.0 0.0 6 12
h 0.596 2 3 cbr 1000 ------- 0 2.0 0.1 6 13
+ 0.596 1 3 cbr 1000 ------- 0 1.0 0.0 6 12
- 0.596 1 3 cbr 1000 ------- 0 1.0 0.0 6 12
+ 0.596 2 3 cbr 1000 ------- 0 2.0 0.1 6 13
r 0.598928 3 0 cbr 1000 ------- 0 2.0 0.1 3 7
- 0.59902 2 3 cbr 1000 ------- 0 2.0 0.1 4 9
r 0.6074 3 0 cbr 1000 ------- 0 2.0 0.1 4 9
- 0.607492 2 3 cbr 1000 ------- 0 2.0 0.1 5 11
h 0.612 1 3 cbr 1000 ------- 0 1.0 0.0 7 14
h 0.612 2 3 cbr 1000 ------- 0 2.0 0.1 7 15
+ 0.612 1 3 cbr 1000 ------- 0 1.0 0.0 7 14
+ 0.612 2 3 cbr 1000 ------- 0 2.0 0.1 7 15
r 0.616256 3 0 cbr 1000 ------- 0 2.0 0.1 5 11
- 0.616348 2 3 cbr 1000 ------- 0 2.0 0.1 6 13
r 0.625112 3 0 cbr 1000 ------- 0 2.0 0.1 6 13
- 0.625204 2 3 cbr 1000 ------- 0 2.0 0.1 7 15
h 0.628 1 3 cbr 1000 ------- 0 1.0 0.0 8 16
h 0.628 2 3 cbr 1000 ------- 0 2.0 0.1 8 17
+ 0.628 1 3 cbr 1000 ------- 0 1.0 0.0 8 16
+ 0.628 2 3 cbr 1000 ------- 0 2.0 0.1 8 17
r 0.633456 3 0 cbr 1000 ------- 0 2.0 0.1 7 15
- 0.633548 2 3 cbr 1000 ------- 0 2.0 0.1 8 17
r 0.641664 3 0 cbr 1000 ------- 0 2.0 0.1 8 17
h 0.644 1 3 cbr 1000 ------- 0 1.0 0.0 9 18
h 0.644 2 3 cbr 1000 ------- 0 2.0 0.1 9 19
+ 0.644 1 3 cbr 1000 ------- 0 1.0 0.0 9 18
+ 0.644 2 3 cbr 1000 ------- 0 2.0 0.1 9 19
- 0.644 2 3 cbr 1000 ------- 0 2.0 0.1 9 19
r 0.649876 3 0 cbr 1000 ------- 0 1.0 0.0 6 12
- 0.649968 1 3 cbr 1000 ------- 0 1.0 0.0 7 14
h 0.66 1 3 cbr 1000 ------- 0 1.0 0.0 10 20
h 0.66 2 3 cbr 1000 ------- 0 2.0 0.1 10 21
+ 0.66 1 3 cbr 1000 ------- 0 1.0 0.0 10 20
+ 0.66 2 3 cbr 1000 ------- 0 2.0 0.1 10 21
r 0.661552 3 0 cbr 1000 ------- 0 2.0 0.1 9 19
- 0.661644 2 3 cbr 1000 ------- 0 2.0 0.1 10 21
r 0.669896 3 0 cbr 1000 ------- 0 2.0 0.1 10 21
h 0.676 1 3 cbr 1000 ------- 0 1.0 0.0 11 22
h 0.676 2 3 cbr 1000 ------- 0 2.0 0.1 11 23
+ 0.676 1 3 cbr 1000 ------- 0 1.0 0.0 11 22
+ 0.676 2 3 cbr 1000 ------- 0 2.0 0.1 11 23
- 0.676 2 3 cbr 1000 ------- 0 2.0 0.1 11 23
r 0.678108 3 0 cbr 1000 ------- 0 1.0 0.0 7 14
- 0.6782 1 3 cbr 1000 ------- 0 1.0 0.0 8 16
r 0.686448 3 0 cbr 1000 ------- 0 2.0 0.1 11 23
h 0.692 1 3 cbr 1000 ------- 0 1.0 0.0 12 24
h 0.692 2 3 cbr 1000 ------- 0 2.0 0.1 12 25
+ 0.692 1 3 cbr 1000 ------- 0 1.0 0.0 12 24
+ 0.692 2 3 cbr 1000 ------- 0 2.0 0.1 12 25
- 0.692 2 3 cbr 1000 ------- 0 2.0 0.1 12 25
r 0.69466 3 0 cbr 1000 ------- 0 1.0 0.0 8 16
- 0.694752 1 3 cbr 1000 ------- 0 1.0 0.0 9 18
r 0.703136 3 0 cbr 1000 ------- 0 2.0 0.1 12 25
h 0.708 1 3 cbr 1000 ------- 0 1.0 0.0 13 26
h 0.708 2 3 cbr 1000 ------- 0 2.0 0.1 13 27
+ 0.708 1 3 cbr 1000 ------- 0 1.0 0.0 13 26
+ 0.708 2 3 cbr 1000 ------- 0 2.0 0.1 13 27
- 0.708 2 3 cbr 1000 ------- 0 2.0 0.1 13 27
r 0.711348 3 0 cbr 1000 ------- 0 1.0 0.0 9 18
- 0.71144 1 3 cbr 1000 ------- 0 1.0 0.0 10 20
r 0.720336 3 0 cbr 1000 ------- 0 2.0 0.1 13 27
h 0.724 1 3 cbr 1000 ------- 0 1.0 0.0 14 28
h 0.724 2 3 cbr 1000 ------- 0 2.0 0.1 14 29
+ 0.724 1 3 cbr 1000 ------- 0 1.0 0.0 14 28
+ 0.724 2 3 cbr 1000 ------- 0 2.0 0.1 14 29
- 0.724 2 3 cbr 1000 ------- 0 2.0 0.1 14 29
r 0.728548 3 0 cbr 1000 ------- 0 1.0 0.0 10 20
- 0.72864 1 3 cbr 1000 ------- 0 1.0 0.0 11 22
r 0.738048 3 0 cbr 1000 ------- 0 2.0 0.1 14 29
h 0.74 1 3 cbr 1000 ------- 0 1.0 0.0 15 30
h 0.74 2 3 cbr 1000 ------- 0 2.0 0.1 15 31
+ 0.74 1 3 cbr 1000 ------- 0 1.0 0.0 15 30
+ 0.74 2 3 cbr 1000 ------- 0 2.0 0.1 15 31
- 0.74 2 3 cbr 1000 ------- 0 2.0 0.1 15 31
r 0.74626 3 0 cbr 1000 ------- 0 1.0 0.0 11 22
- 0.746352 1 3 cbr 1000 ------- 0 1.0 0.0 12 24
r 0.755756 3 0 cbr 1000 ------- 0 1.0 0.0 12 24
- 0.755848 1 3 cbr 1000 ------- 0 1.0 0.0 13 26
h 0.756 1 3 cbr 1000 ------- 0 1.0 0.0 16 32
h 0.756 2 3 cbr 1000 ------- 0 2.0 0.1 16 33
+ 0.756 1 3 cbr 1000 ------- 0 1.0 0.0 16 32
+ 0.756 2 3 cbr 1000 ------- 0 2.0 0.1 16 33
r 0.7641 3 0 cbr 1000 ------- 0 1.0 0.0 13 26
- 0.764192 1 3 cbr 1000 ------- 0 1.0 0.0 14 28
h 0.772 1 3 cbr 1000 ------- 0 1.0 0.0 17 34
h 0.772 2 3 cbr 1000 ------- 0 2.0 0.1 17 35
+ 0.772 1 3 cbr 1000 ------- 0 1.0 0.0 17 34
+ 0.772 2 3 cbr 1000 ------- 0 2.0 0.1 17 35
r 0.772444 3 0 cbr 1000 ------- 0 1.0 0.0 14 28
- 0.772536 1 3 cbr 1000 ------- 0 1.0 0.0 15 30
r 0.780788 3 0 cbr 1000 ------- 0 1.0 0.0 15 30
- 0.78088 1 3 cbr 1000 ------- 0 1.0 0.0 16 32
h 0.788 1 3 cbr 1000 ------- 0 1.0 0.0 18 36
h 0.788 2 3 cbr 1000 ------- 0 2.0 0.1 18 37
+ 0.788 1 3 cbr 1000 ------- 0 1.0 0.0 18 36
+ 0.788 2 3 cbr 1000 ------- 0 2.0 0.1 18 37
r 0.789644 3 0 cbr 1000 ------- 0 1.0 0.0 16 32
- 0.789736 1 3 cbr 1000 ------- 0 1.0 0.0 17 34
r 0.797852 3 0 cbr 1000 ------- 0 1.0 0.0 17 34
- 0.797944 1 3 cbr 1000 ------- 0 1.0 0.0 18 36
h 0.804 1 3 cbr 1000 ------- 0 1.0 0.0 19 38
h 0.804 2 3 cbr 1000 ------- 0 2.0 0.1 19 39
+ 0.804 1 3 cbr 1000 ------- 0 1.0 0.0 19 38
+ 0.804 2 3 cbr 1000 ------- 0 2.0 0.1 19 39
r 0.806196 3 0 cbr 1000 ------- 0 1.0 0.0 18 36
- 0.806288 1 3 cbr 1000 ------- 0 1.0 0.0 19 38
r 0.814404 3 0 cbr 1000 ------- 0 1.0 0.0 19 38
h 0.82 1 3 cbr 1000 ------- 0 1.0 0.0 20 40
h 0.82 2 3 cbr 1000 ------- 0 2.0 0.1 20 41
+ 0.82 1 3 cbr 1000 ------- 0 1.0 0.0 20 40
- 0.82 1 3 cbr 1000 ------- 0 1.0 0.0 20 40
+ 0.82 2 3 cbr 1000 ------- 0 2.0 0.1 20 41
r 0.828116 3 0 cbr 1000 ------- 0 1.0 0.0 20 40
h 0.836 1 3 cbr 1000 ------- 0 1.0 0.0 21 42
h 0.836 2 3 cbr 1000 ------- 0 2.0 0.1 21 43
+ 0.836 1 3 cbr 1000 ------- 0 1.0 0.0 21 42
- 0.836 1 3 cbr 1000 ------- 0 1.0 0.0 21 42
+ 0.836 2 3 cbr 1000 ------- 0 2.0 0.1 21 43
r 0.836328 3 0 cbr 1000 ------- 0 2.0 0.1 15 31
- 0.83642 2 3 cbr 1000 ------- 0 2.0 0.1 16 33
r 0.844668 3 0 cbr 1000 ------- 0 1.0 0.0 21 42
h 0.852 1 3 cbr 1000 ------- 0 1.0 0.0 22 44
h 0.852 2 3 cbr 1000 ------- 0 2.0 0.1 22 45
+ 0.852 1 3 cbr 1000 ------- 0 1.0 0.0 22 44
- 0.852 1 3 cbr 1000 ------- 0 1.0 0.0 22 44
+ 0.852 2 3 cbr 1000 ------- 0 2.0 0.1 22 45
r 0.85288 3 0 cbr 1000 ------- 0 2.0 0.1 16 33
- 0.852972 2 3 cbr 1000 ------- 0 2.0 0.1 17 35
r 0.861868 3 0 cbr 1000 ------- 0 1.0 0.0 22 44
h 0.868 1 3 cbr 1000 ------- 0 1.0 0.0 23 46
h 0.868 2 3 cbr 1000 ------- 0 2.0 0.1 23 47
+ 0.868 1 3 cbr 1000 ------- 0 1.0 0.0 23 46
- 0.868 1 3 cbr 1000 ------- 0 1.0 0.0 23 46
+ 0.868 2 3 cbr 1000 ------- 0 2.0 0.1 23 47
r 0.87008 3 0 cbr 1000 ------- 0 2.0 0.1 17 35
- 0.870172 2 3 cbr 1000 ------- 0 2.0 0.1 18 37
r 0.879068 3 0 cbr 1000 ------- 0 1.0 0.0 23 46
h 0.884 1 3 cbr 1000 ------- 0 1.0 0.0 24 48
h 0.884 2 3 cbr 1000 ------- 0 2.0 0.1 24 49
+ 0.884 1 3 cbr 1000 ------- 0 1.0 0.0 24 48
- 0.884 1 3 cbr 1000 ------- 0 1.0 0.0 24 48
+ 0.884 2 3 cbr 1000 ------- 0 2.0 0.1 24 49
r 0.88728 3 0 cbr 1000 ------- 0 2.0 0.1 18 37
- 0.887372 2 3 cbr 1000 ------- 0 2.0 0.1 19 39
r 0.896264 3 0 cbr 1000 ------- 0 2.0 0.1 19 39
- 0.896356 2 3 cbr 1000 ------- 0 2.0 0.1 20 41
h 0.9 1 3 cbr 1000 ------- 0 1.0 0.0 25 50
h 0.9 2 3 cbr 1000 ------- 0 2.0 0.1 25 51
+ 0.9 1 3 cbr 1000 ------- 0 1.0 0.0 25 50
+ 0.9 2 3 cbr 1000 ------- 0 2.0 0.1 25 51
r 0.905248 3 0 cbr 1000 ------- 0 2.0 0.1 20 41
- 0.90534 2 3 cbr 1000 ------- 0 2.0 0.1 21 43
r 0.913588 3 0 cbr 1000 ------- 0 1.0 0.0 24 48
- 0.91368 1 3 cbr 1000 ------- 0 1.0 0.0 25 50
h 0.916 1 3 cbr 1000 ------- 0 1.0 0.0 26 52
h 0.916 2 3 cbr 1000 ------- 0 2.0 0.1 26 53
+ 0.916 1 3 cbr 1000 ------- 0 1.0 0.0 26 52
+ 0.916 2 3 cbr 1000 ------- 0 2.0 0.1 26 53
r 0.922576 3 0 cbr 1000 ------- 0 2.0 0.1 21 43
- 0.922668 2 3 cbr 1000 ------- 0 2.0 0.1 22 45
r 0.931432 3 0 cbr 1000 ------- 0 2.0 0.1 22 45
- 0.931524 2 3 cbr 1000 ------- 0 2.0 0.1 23 47
h 0.932 1 3 cbr 1000 ------- 0 1.0 0.0 27 54
h 0.932 2 3 cbr 1000 ------- 0 2.0 0.1 27 55
+ 0.932 1 3 cbr 1000 ------- 0 1.0 0.0 27 54
+ 0.932 2 3 cbr 1000 ------- 0 2.0 0.1 27 55
r 0.940288 3 0 cbr 1000 ------- 0 2.0 0.1 23 47
- 0.94038 2 3 cbr 1000 ------- 0 2.0 0.1 24 49
h 0.948 1 3 cbr 1000 ------- 0 1.0 0.0 28 56
h 0.948 2 3 cbr 1000 ------- 0 2.0 0.1 28 57
+ 0.948 1 3 cbr 1000 ------- 0 1.0 0.0 28 56
+ 0.948 2 3 cbr 1000 ------- 0 2.0 0.1 28 57
r 0.949144 3 0 cbr 1000 ------- 0 2.0 0.1 24 49
- 0.949236 2 3 cbr 1000 ------- 0 2.0 0.1 25 51
r 0.957352 3 0 cbr 1000 ------- 0 2.0 0.1 25 51
- 0.957444 2 3 cbr 1000 ------- 0 2.0 0.1 26 53
h 0.964 1 3 cbr 1000 ------- 0 1.0 0.0 29 58
h 0.964 2 3 cbr 1000 ------- 0 2.0 0.1 29 59
+ 0.964 1 3 cbr 1000 ------- 0 1.0 0.0 29 58
+ 0.964 2 3 cbr 1000 ------- 0 2.0 0.1 29 59
r 0.965824 3 0 cbr 1000 ------- 0 2.0 0.1 26 53
- 0.965916 2 3 cbr 1000 ------- 0 2.0 0.1 27 55
r 0.974032 3 0 cbr 1000 ------- 0 2.0 0.1 27 55
- 0.974124 2 3 cbr 1000 ------- 0 2.0 0.1 28 57
h 0.98 1 3 cbr 1000 ------- 0 1.0 0.0 30 60
h 0.98 2 3 cbr 1000 ------- 0 2.0 0.1 30 61
+ 0.98 1 3 cbr 1000 ------- 0 1.0 0.0 30 60
+ 0.98 2 3 cbr 1000 ------- 0 2.0 0.1 30 61
r 0.98224 3 0 cbr 1000 ------- 0 2.0 0.1 28 57
- 0.982332 2 3 cbr 1000 ------- 0 2.0 0.1 29 59
r 0.990584 3 0 cbr 1000 ------- 0 2.0 0.1 29 59
- 0.990676 2 3 cbr 1000 ------- 0 2.0 0.1 30 61
h 0.996 1 3 cbr 1000 ------- 0 1.0 0.0 31 62
h 0.996 2 3 cbr 1000 ------- 0 2.0 0.1 31 63
+ 0.996 1 3 cbr 1000 ------- 0 1.0 0.0 31 62
+ 0.996 2 3 cbr 1000 ------- 0 2.0 0.1 31 63
r 0.998792 3 0 cbr 1000 ------- 0 2.0 0.1 30 61
- 0.998884 2 3 cbr 1000 ------- 0 2.0 0.1 31 63
r 1.007 3 0 cbr 1000 ------- 0 2.0 0.1 31 63
h 1.012 1 3 cbr 1000 ------- 0 1.0 0.0 32 64
h 1.012 2 3 cbr 1000 ------- 0 2.0 0.1 32 65
+ 1.012 1 3 cbr 1000 ------- 0 1.0 0.0 32 64
+ 1.012 2 3 cbr 1000 ------- 0 2.0 0.1 32 65
- 1.012 2 3 cbr 1000 ------- 0 2.0 0.1 32 65
r 1.017716 3 0 cbr 1000 ------- 0 1.0 0.0 25 50
- 1.017808 1 3 cbr 1000 ------- 0 1.0 0.0 26 52
r 1.026056 3 0 cbr 1000 ------- 0 2.0 0.1 32 65
h 1.028 1 3 cbr 1000 ------- 0 1.0 0.0 33 66
h 1.028 2 3 cbr 1000 ------- 0 2.0 0.1 33 67
+ 1.028 1 3 cbr 1000 ------- 0 1.0 0.0 33 66
+ 1.028 2 3 cbr 1000 ------- 0 2.0 0.1 33 67
- 1.028 2 3 cbr 1000 ------- 0 2.0 0.1 33 67
r 1.034268 3 0 cbr 1000 ------- 0 1.0 0.0 26 52
- 1.03436 1 3 cbr 1000 ------- 0 1.0 0.0 27 54
r 1.043768 3 0 cbr 1000 ------- 0 2.0 0.1 33 67
h 1.044 1 3 cbr 1000 ------- 0 1.0 0.0 34 68
h 1.044 2 3 cbr 1000 ------- 0 2.0 0.1 34 69
+ 1.044 1 3 cbr 1000 ------- 0 1.0 0.0 34 68
+ 1.044 2 3 cbr 1000 ------- 0 2.0 0.1 34 69
- 1.044 2 3 cbr 1000 ------- 0 2.0 0.1 34 69
r 1.05198 3 0 cbr 1000 ------- 0 1.0 0.0 27 54
- 1.052072 1 3 cbr 1000 ------- 0 1.0 0.0 28 56
h 1.06 1 3 cbr 1000 ------- 0 1.0 0.0 35 70
h 1.06 2 3 cbr 1000 ------- 0 2.0 0.1 35 71
+ 1.06 1 3 cbr 1000 ------- 0 1.0 0.0 35 70
+ 1.06 2 3 cbr 1000 ------- 0 2.0 0.1 35 71
r 1.061476 3 0 cbr 1000 ------- 0 1.0 0.0 28 56
- 1.061568 1 3 cbr 1000 ------- 0 1.0 0.0 29 58
r 1.070332 3 0 cbr 1000 ------- 0 1.0 0.0 29 58
- 1.070424 1 3 cbr 1000 ------- 0 1.0 0.0 30 60
h 1.076 1 3 cbr 1000 ------- 0 1.0 0.0 36 72
h 1.076 2 3 cbr 1000 ------- 0 2.0 0.1 36 73
+ 1.076 1 3 cbr 1000 ------- 0 1.0 0.0 36 72
+ 1.076 2 3 cbr 1000 ------- 0 2.0 0.1 36 73
r 1.078676 3 0 cbr 1000 ------- 0 1.0 0.0 30 60
- 1.078768 1 3 cbr 1000 ------- 0 1.0 0.0 31 62
r 1.08702 3 0 cbr 1000 ------- 0 1.0 0.0 31 62
- 1.087112 1 3 cbr 1000 ------- 0 1.0 0.0 32 64
h 1.092 1 3 cbr 1000 ------- 0 1.0 0.0 37 74
h 1.092 2 3 cbr 1000 ------- 0 2.0 0.1 37 75
+ 1.092 1 3 cbr 1000 ------- 0 1.0 0.0 37 74
+ 1.092 2 3 cbr 1000 ------- 0 2.0 0.1 37 75
r 1.095364 3 0 cbr 1000 ------- 0 1.0 0.0 32 64
- 1.095456 1 3 cbr 1000 ------- 0 1.0 0.0 33 66
r 1.103708 3 0 cbr 1000 ------- 0 1.0 0.0 33 66
- 1.1038 1 3 cbr 1000 ------- 0 1.0 0.0 34 68
h 1.108 1 3 cbr 1000 ------- 0 1.0 0.0 38 76
h 1.108 2 3 cbr 1000 ------- 0 2.0 0.1 38 77
+ 1.108 1 3 cbr 1000 ------- 0 1.0 0.0 38 76
+ 1.108 2 3 cbr 1000 ------- 0 2.0 0.1 38 77
r 1.111916 3 0 cbr 1000 ------- 0 1.0 0.0 34 68
- 1.112008 1 3 cbr 1000 ------- 0 1.0 0.0 35 70
r 1.120124 3 0 cbr 1000 ------- 0 1.0 0.0 35 70
- 1.120216 1 3 cbr 1000 ------- 0 1.0 0.0 36 72
h 1.124 1 3 cbr 1000 ------- 0 1.0 0.0 39 78
h 1.124 2 3 cbr 1000 ------- 0 2.0 0.1 39 79
+ 1.124 1 3 cbr 1000 ------- 0 1.0 0.0 39 78
+ 1.124 2 3 cbr 1000 ------- 0 2.0 0.1 39 79
r 1.12898 3 0 cbr 1000 ------- 0 1.0 0.0 36 72
- 1.129072 1 3 cbr 1000 ------- 0 1.0 0.0 37 74
r 1.137188 3 0 cbr 1000 ------- 0 1.0 0.0 37 74
- 1.13728 1 3 cbr 1000 ------- 0 1.0 0.0 38 76
h 1.14 1 3 cbr 1000 ------- 0 1.0 0.0 40 80
h 1.14 2 3 cbr 1000 ------- 0 2.0 0.1 40 81
+ 1.14 1 3 cbr 1000 ------- 0 1.0 0.0 40 80
+ 1.14 2 3 cbr 1000 ------- 0 2.0 0.1 40 81
r 1.145532 3 0 cbr 1000 ------- 0 1.0 0.0 38 76
- 1.145624 1 3 cbr 1000 ------- 0 1.0 0.0 39 78
r 1.15374 3 0 cbr 1000 ------- 0 1.0 0.0 39 78
- 1.153832 1 3 cbr 1000 ------- 0 1.0 0.0 40 80
h 1.156 1 3 cbr 1000 ------- 0 1.0 0.0 41 82
h 1.156 2 3 cbr 1000 ------- 0 2.0 0.1 41 83
+ 1.156 1 3 cbr 1000 ------- 0 1.0 0.0 41 82
+ 1.156 2 3 cbr 1000 ------- 0 2.0 0.1 41 83
r 1.161948 3 0 cbr 1000 ------- 0 1.0 0.0 40 80
- 1.16204 1 3 cbr 1000 ------- 0 1.0 0.0 41 82
r 1.170156 3 0 cbr 1000 ------- 0 1.0 0.0 41 82
h 1.172 1 3 cbr 1000 ------- 0 1.0 0.0 42 84
h 1.172 2 3 cbr 1000 ------- 0 2.0 0.1 42 85
+ 1.172 1 3 cbr 1000 ------- 0 1.0 0.0 42 84
- 1.172 1 3 cbr 1000 ------- 0 1.0 0.0 42 84
+ 1.172 2 3 cbr 1000 ------- 0 2.0 0.1 42 85
r 1.180116 3 0 cbr 1000 ------- 0 1.0 0.0 42 84
h 1.188 1 3 cbr 1000 ------- 0 1.0 0.0 43 86
h 1.188 2 3 cbr 1000 ------- 0 2.0 0.1 43 87
+ 1.188 1 3 cbr 1000 ------- 0 1.0 0.0 43 86
- 1.188 1 3 cbr 1000 ------- 0 1.0 0.0 43 86
+ 1.188 2 3 cbr 1000 ------- 0 2.0 0.1 43 87
r 1.196116 3 0 cbr 1000 ------- 0 1.0 0.0 43 86
h 1.204 1 3 cbr 1000 ------- 0 1.0 0.0 44 88
h 1.204 2 3 cbr 1000 ------- 0 2.0 0.1 44 89
+ 1.204 1 3 cbr 1000 ------- 0 1.0 0.0 44 88
- 1.204 1 3 cbr 1000 ------- 0 1.0 0.0 44 88
+ 1.204 2 3 cbr 1000 ------- 0 2.0 0.1 44 89
r 1.204328 3 0 cbr 1000 ------- 0 2.0 0.1 34 69
- 1.20442 2 3 cbr 1000 ------- 0 2.0 0.1 35 71
r 1.213316 3 0 cbr 1000 ------- 0 1.0 0.0 44 88
h 1.22 1 3 cbr 1000 ------- 0 1.0 0.0 45 90
h 1.22 2 3 cbr 1000 ------- 0 2.0 0.1 45 91
+ 1.22 1 3 cbr 1000 ------- 0 1.0 0.0 45 90
- 1.22 1 3 cbr 1000 ------- 0 1.0 0.0 45 90
+ 1.22 2 3 cbr 1000 ------- 0 2.0 0.1 45 91
r 1.221528 3 0 cbr 1000 ------- 0 2.0 0.1 35 71
- 1.22162 2 3 cbr 1000 ------- 0 2.0 0.1 36 73
r 1.23154 3 0 cbr 1000 ------- 0 1.0 0.0 45 90
h 1.236 1 3 cbr 1000 ------- 0 1.0 0.0 46 92
h 1.236 2 3 cbr 1000 ------- 0 2.0 0.1 46 93
+ 1.236 1 3 cbr 1000 ------- 0 1.0 0.0 46 92
- 1.236 1 3 cbr 1000 ------- 0 1.0 0.0 46 92
+ 1.236 2 3 cbr 1000 ------- 0 2.0 0.1 46 93
r 1.239752 3 0 cbr 1000 ------- 0 2.0 0.1 36 73
- 1.239844 2 3 cbr 1000 ------- 0 2.0 0.1 37 75
r 1.248096 3 0 cbr 1000 ------- 0 2.0 0.1 37 75
- 1.248188 2 3 cbr 1000 ------- 0 2.0 0.1 38 77
h 1.252 1 3 cbr 1000 ------- 0 1.0 0.0 47 94
h 1.252 2 3 cbr 1000 ------- 0 2.0 0.1 47 95
+ 1.252 1 3 cbr 1000 ------- 0 1.0 0.0 47 94
+ 1.252 2 3 cbr 1000 ------- 0 2.0 0.1 47 95
r 1.256704 3 0 cbr 1000 ------- 0 2.0 0.1 38 77
- 1.256796 2 3 cbr 1000 ------- 0 2.0 0.1 39 79
r 1.265048 3 0 cbr 1000 ------- 0 2.0 0.1 39 79
- 1.26514 2 3 cbr 1000 ------- 0 2.0 0.1 40 81
h 1.268 1 3 cbr 1000 ------- 0 1.0 0.0 48 96
h 1.268 2 3 cbr 1000 ------- 0 2.0 0.1 48 97
+ 1.268 1 3 cbr 1000 ------- 0 1.0 0.0 48 96
+ 1.268 2 3 cbr 1000 ------- 0 2.0 0.1 48 97
r 1.273256 3 0 cbr 1000 ------- 0 2.0 0.1 40 81
- 1.273348 2 3 cbr 1000 ------- 0 2.0 0.1 41 83
r 1.2816 3 0 cbr 1000 ------- 0 2.0 0.1 41 83
- 1.281692 2 3 cbr 1000 ------- 0 2.0 0.1 42 85
h 1.284 1 3 cbr 1000 ------- 0 1.0 0.0 49 98
h 1.284 2 3 cbr 1000 ------- 0 2.0 0.1 49 99
+ 1.284 1 3 cbr 1000 ------- 0 1.0 0.0 49 98
+ 1.284 2 3 cbr 1000 ------- 0 2.0 0.1 49 99
r 1.290456 3 0 cbr 1000 ------- 0 2.0 0.1 42 85
- 1.290548 2 3 cbr 1000 ------- 0 2.0 0.1 43 87
r 1.298664 3 0 cbr 1000 ------- 0 2.0 0.1 43 87
- 1.298756 2 3 cbr 1000 ------- 0 2.0 0.1 44 89
h 1.3 1 3 cbr 1000 ------- 0 1.0 0.0 50 100
h 1.3 2 3 cbr 1000 ------- 0 2.0 0.1 50 101
+ 1.3 1 3 cbr 1000 ------- 0 1.0 0.0 50 100
+ 1.3 2 3 cbr 1000 ------- 0 2.0 0.1 50 101
r 1.306872 3 0 cbr 1000 ------- 0 2.0 0.1 44 89
- 1.306964 2 3 cbr 1000 ------- 0 2.0 0.1 45 91
r 1.31508 3 0 cbr 1000 ------- 0 2.0 0.1 45 91
- 1.315172 2 3 cbr 1000 ------- 0 2.0 0.1 46 93
h 1.316 1 3 cbr 1000 ------- 0 1.0 0.0 51 102
h 1.316 2 3 cbr 1000 ------- 0 2.0 0.1 51 103
+ 1.316 1 3 cbr 1000 ------- 0 1.0 0.0 51 102
+ 1.316 2 3 cbr 1000 ------- 0 2.0 0.1 51 103
r 1.323288 3 0 cbr 1000 ------- 0 2.0 0.1 46 93
- 1.32338 2 3 cbr 1000 ------- 0 2.0 0.1 47 95
r 1.331496 3 0 cbr 1000 ------- 0 2.0 0.1 47 95
- 1.331588 2 3 cbr 1000 ------- 0 2.0 0.1 48 97
h 1.332 1 3 cbr 1000 ------- 0 1.0 0.0 52 104
h 1.332 2 3 cbr 1000 ------- 0 2.0 0.1 52 105
+ 1.332 1 3 cbr 1000 ------- 0 1.0 0.0 52 104
+ 1.332 2 3 cbr 1000 ------- 0 2.0 0.1 52 105
r 1.339704 3 0 cbr 1000 ------- 0 2.0 0.1 48 97
- 1.339796 2 3 cbr 1000 ------- 0 2.0 0.1 49 99
r 1.347912 3 0 cbr 1000 ------- 0 2.0 0.1 49 99
h 1.348 1 3 cbr 1000 ------- 0 1.0 0.0 53 106
h 1.348 2 3 cbr 1000 ------- 0 2.0 0.1 53 107
+ 1.348 1 3 cbr 1000 ------- 0 1.0 0.0 53 106
+ 1.348 2 3 cbr 1000 ------- 0 2.0 0.1 53 107
- 1.348004 2 3 cbr 1000 ------- 0 2.0 0.1 50 101
r 1.356768 3 0 cbr 1000 ------- 0 2.0 0.1 50 101
- 1.35686 2 3 cbr 1000 ------- 0 2.0 0.1 51 103
h 1.364 1 3 cbr 1000 ------- 0 1.0 0.0 54 108
h 1.364 2 3 cbr 1000 ------- 0 2.0 0.1 54 109
+ 1.364 1 3 cbr 1000 ------- 0 1.0 0.0 54 108
+ 1.364 2 3 cbr 1000 ------- 0 2.0 0.1 54 109
r 1.364976 3 0 cbr 1000 ------- 0 2.0 0.1 51 103
- 1.365068 2 3 cbr 1000 ------- 0 2.0 0.1 52 105
r 1.373184 3 0 cbr 1000 ------- 0 2.0 0.1 52 105
- 1.373276 2 3 cbr 1000 ------- 0 2.0 0.1 53 107
h 1.38 1 3 cbr 1000 ------- 0 1.0 0.0 55 110
h 1.38 2 3 cbr 1000 ------- 0 2.0 0.1 55 111
+ 1.38 1 3 cbr 1000 ------- 0 1.0 0.0 55 110
+ 1.38 2 3 cbr 1000 ------- 0 2.0 0.1 55 111
r 1.381392 3 0 cbr 1000 ------- 0 2.0 0.1 53 107
- 1.381484 2 3 cbr 1000 ------- 0 2.0 0.1 54 109
r 1.3896 3 0 cbr 1000 ------- 0 2.0 0.1 54 109
- 1.389692 2 3 cbr 1000 ------- 0 2.0 0.1 55 111
h 1.396 1 3 cbr 1000 ------- 0 1.0 0.0 56 112
h 1.396 2 3 cbr 1000 ------- 0 2.0 0.1 56 113
+ 1.396 1 3 cbr 1000 ------- 0 1.0 0.0 56 112
+ 1.396 2 3 cbr 1000 ------- 0 2.0 0.1 56 113
r 1.397808 3 0 cbr 1000 ------- 0 2.0 0.1 55 111
- 1.3979 2 3 cbr 1000 ------- 0 2.0 0.1 56 113
r 1.406016 3 0 cbr 1000 ------- 0 2.0 0.1 56 113
h 1.412 1 3 cbr 1000 ------- 0 1.0 0.0 57 114
h 1.412 2 3 cbr 1000 ------- 0 2.0 0.1 57 115
+ 1.412 1 3 cbr 1000 ------- 0 1.0 0.0 57 114
+ 1.412 2 3 cbr 1000 ------- 0 2.0 0.1 57 115
- 1.412 2 3 cbr 1000 ------- 0 2.0 0.1 57 115
r 1.420116 3 0 cbr 1000 ------- 0 2.0 0.1 57 115
h 1.428 1 3 cbr 1000 ------- 0 1.0 0.0 58 116
h 1.428 2 3 cbr 1000 ------- 0 2.0 0.1 58 117
+ 1.428 1 3 cbr 1000 ------- 0 1.0 0.0 58 116
+ 1.428 2 3 cbr 1000 ------- 0 2.0 0.1 58 117
- 1.428 2 3 cbr 1000 ------- 0 2.0 0.1 58 117
r 1.436116 3 0 cbr 1000 ------- 0 2.0 0.1 58 117
h 1.444 1 3 cbr 1000 ------- 0 1.0 0.0 59 118
h 1.444 2 3 cbr 1000 ------- 0 2.0 0.1 59 119
+ 1.444 1 3 cbr 1000 ------- 0 1.0 0.0 59 118
+ 1.444 2 3 cbr 1000 ------- 0 2.0 0.1 59 119
- 1.444 2 3 cbr 1000 ------- 0 2.0 0.1 59 119
r 1.448412 3 0 cbr 1000 ------- 0 1.0 0.0 46 92
- 1.448504 1 3 cbr 1000 ------- 0 1.0 0.0 47 94
r 1.4574 3 0 cbr 1000 ------- 0 2.0 0.1 59 119
h 1.46 1 3 cbr 1000 ------- 0 1.0 0.0 60 120
h 1.46 2 3 cbr 1000 ------- 0 2.0 0.1 60 121
+ 1.46 1 3 cbr 1000 ------- 0 1.0 0.0 60 120
+ 1.46 2 3 cbr 1000 ------- 0 2.0 0.1 60 121
- 1.46 2 3 cbr 1000 ------- 0 2.0 0.1 60 121
r 1.465612 3 0 cbr 1000 ------- 0 1.0 0.0 47 94
- 1.465704 1 3 cbr 1000 ------- 0 1.0 0.0 48 96
r 1.47524 3 0 cbr 1000 ------- 0 2.0 0.1 60 121
h 1.476 1 3 cbr 1000 ------- 0 1.0 0.0 61 122
h 1.476 2 3 cbr 1000 ------- 0 2.0 0.1 61 123
+ 1.476 1 3 cbr 1000 ------- 0 1.0 0.0 61 122
+ 1.476 2 3 cbr 1000 ------- 0 2.0 0.1 61 123
- 1.476 2 3 cbr 1000 ------- 0 2.0 0.1 61 123
r 1.483452 3 0 cbr 1000 ------- 0 1.0 0.0 48 96
- 1.483544 1 3 cbr 1000 ------- 0 1.0 0.0 49 98
r 1.491796 3 0 cbr 1000 ------- 0 1.0 0.0 49 98
- 1.491888 1 3 cbr 1000 ------- 0 1.0 0.0 50 100
h 1.492 1 3 cbr 1000 ------- 0 1.0 0.0 62 124
h 1.492 2 3 cbr 1000 ------- 0 2.0 0.1 62 125
+ 1.492 1 3 cbr 1000 ------- 0 1.0 0.0 62 124
+ 1.492 2 3 cbr 1000 ------- 0 2.0 0.1 62 125
r 1.50014 3 0 cbr 1000 ------- 0 1.0 0.0 50 100
- 1.500232 1 3 cbr 1000 ------- 0 1.0 0.0 51 102
h 1.508 1 3 cbr 1000 ------- 0 1.0 0.0 63 126
h 1.508 2 3 cbr 1000 ------- 0 2.0 0.1 63 127
+ 1.508 1 3 cbr 1000 ------- 0 1.0 0.0 63 126
+ 1.508 2 3 cbr 1000 ------- 0 2.0 0.1 63 127
r 1.508484 3 0 cbr 1000 ------- 0 1.0 0.0 51 102
- 1.508576 1 3 cbr 1000 ------- 0 1.0 0.0 52 104
r 1.51734 3 0 cbr 1000 ------- 0 1.0 0.0 52 104
- 1.517432 1 3 cbr 1000 ------- 0 1.0 0.0 53 106
h 1.524 1 3 cbr 1000 ------- 0 1.0 0.0 64 128
h 1.524 2 3 cbr 1000 ------- 0 2.0 0.1 64 129
+ 1.524 1 3 cbr 1000 ------- 0 1.0 0.0 64 128
+ 1.524 2 3 cbr 1000 ------- 0 2.0 0.1 64 129
r 1.526196 3 0 cbr 1000 ------- 0 1.0 0.0 53 106
- 1.526288 1 3 cbr 1000 ------- 0 1.0 0.0 54 108
r 1.535052 3 0 cbr 1000 ------- 0 1.0 0.0 54 108
- 1.535144 1 3 cbr 1000 ------- 0 1.0 0.0 55 110
h 1.54 1 3 cbr 1000 ------- 0 1.0 0.0 65 130
h 1.54 2 3 cbr 1000 ------- 0 2.0 0.1 65 131
+ 1.54 1 3 cbr 1000 ------- 0 1.0 0.0 65 130
+ 1.54 2 3 cbr 1000 ------- 0 2.0 0.1 65 131
r 1.54326 3 0 cbr 1000 ------- 0 1.0 0.0 55 110
- 1.543352 1 3 cbr 1000 ------- 0 1.0 0.0 56 112
r 1.551468 3 0 cbr 1000 ------- 0 1.0 0.0 56 112
- 1.55156 1 3 cbr 1000 ------- 0 1.0 0.0 57 114
h 1.556 1 3 cbr 1000 ------- 0 1.0 0.0 66 132
h 1.556 2 3 cbr 1000 ------- 0 2.0 0.1 66 133
+ 1.556 1 3 cbr 1000 ------- 0 1.0 0.0 66 132
+ 1.556 2 3 cbr 1000 ------- 0 2.0 0.1 66 133
r 1.560324 3 0 cbr 1000 ------- 0 1.0 0.0 57 114
- 1.560416 1 3 cbr 1000 ------- 0 1.0 0.0 58 116
r 1.568532 3 0 cbr 1000 ------- 0 1.0 0.0 58 116
- 1.568624 1 3 cbr 1000 ------- 0 1.0 0.0 59 118
h 1.572 1 3 cbr 1000 ------- 0 1.0 0.0 67 134
h 1.572 2 3 cbr 1000 ------- 0 2.0 0.1 67 135
+ 1.572 1 3 cbr 1000 ------- 0 1.0 0.0 67 134
+ 1.572 2 3 cbr 1000 ------- 0 2.0 0.1 67 135
r 1.57674 3 0 cbr 1000 ------- 0 1.0 0.0 59 118
- 1.576832 1 3 cbr 1000 ------- 0 1.0 0.0 60 120
r 1.584948 3 0 cbr 1000 ------- 0 1.0 0.0 60 120
- 1.58504 1 3 cbr 1000 ------- 0 1.0 0.0 61 122
h 1.588 1 3 cbr 1000 ------- 0 1.0 0.0 68 136
h 1.588 2 3 cbr 1000 ------- 0 2.0 0.1 68 137
+ 1.588 1 3 cbr 1000 ------- 0 1.0 0.0 68 136
+ 1.588 2 3 cbr 1000 ------- 0 2.0 0.1 68 137
r 1.593156 3 0 cbr 1000 ------- 0 1.0 0.0 61 122
- 1.593248 1 3 cbr 1000 ------- 0 1.0 0.0 62 124
r 1.6015 3 0 cbr 1000 ------- 0 1.0 0.0 62 124
- 1.601592 1 3 cbr 1000 ------- 0 1.0 0.0 63 126
h 1.604 1 3 cbr 1000 ------- 0 1.0 0.0 69 138
h 1.604 2 3 cbr 1000 ------- 0 2.0 0.1 69 139
+ 1.604 1 3 cbr 1000 ------- 0 1.0 0.0 69 138
+ 1.604 2 3 cbr 1000 ------- 0 2.0 0.1 69 139
r 1.609708 3 0 cbr 1000 ------- 0 1.0 0.0 63 126
- 1.6098 1 3 cbr 1000 ------- 0 1.0 0.0 64 128
r 1.617916 3 0 cbr 1000 ------- 0 1.0 0.0 64 128
- 1.618008 1 3 cbr 1000 ------- 0 1.0 0.0 65 130
h 1.62 1 3 cbr 1000 ------- 0 1.0 0.0 70 140
h 1.62 2 3 cbr 1000 ------- 0 2.0 0.1 70 141
+ 1.62 1 3 cbr 1000 ------- 0 1.0 0.0 70 140
+ 1.62 2 3 cbr 1000 ------- 0 2.0 0.1 70 141
r 1.626124 3 0 cbr 1000 ------- 0 1.0 0.0 65 130
- 1.626216 1 3 cbr 1000 ------- 0 1.0 0.0 66 132
r 1.63498 3 0 cbr 1000 ------- 0 1.0 0.0 66 132
- 1.635072 1 3 cbr 1000 ------- 0 1.0 0.0 67 134
h 1.636 1 3 cbr 1000 ------- 0 1.0 0.0 71 142
h 1.636 2 3 cbr 1000 ------- 0 2.0 0.1 71 143
+ 1.636 1 3 cbr 1000 ------- 0 1.0 0.0 71 142
+ 1.636 2 3 cbr 1000 ------- 0 2.0 0.1 71 143
r 1.643188 3 0 cbr 1000 ------- 0 1.0 0.0 67 134
- 1.64328 1 3 cbr 1000 ------- 0 1.0 0.0 68 136
r 1.651396 3 0 cbr 1000 ------- 0 1.0 0.0 68 136
- 1.651488 1 3 cbr 1000 ------- 0 1.0 0.0 69 138
h 1.652 1 3 cbr 1000 ------- 0 1.0 0.0 72 144
h 1.652 2 3 cbr 1000 ------- 0 2.0 0.1 72 145
+ 1.652 1 3 cbr 1000 ------- 0 1.0 0.0 72 144
+ 1.652 2 3 cbr 1000 ------- 0 2.0 0.1 72 145
r 1.659604 3 0 cbr 1000 ------- 0 1.0 0.0 69 138
- 1.659696 1 3 cbr 1000 ------- 0 1.0 0.0 70 140
r 1.667812 3 0 cbr 1000 ------- 0 1.0 0.0 70 140
- 1.667904 1 3 cbr 1000 ------- 0 1.0 0.0 71 142
h 1.668 1 3 cbr 1000 ------- 0 1.0 0.0 73 146
h 1.668 2 3 cbr 1000 ------- 0 2.0 0.1 73 147
+ 1.668 1 3 cbr 1000 ------- 0 1.0 0.0 73 146
+ 1.668 2 3 cbr 1000 ------- 0 2.0 0.1 73 147
r 1.67602 3 0 cbr 1000 ------- 0 1.0 0.0 71 142
- 1.676112 1 3 cbr 1000 ------- 0 1.0 0.0 72 144
h 1.684 1 3 cbr 1000 ------- 0 1.0 0.0 74 148
h 1.684 2 3 cbr 1000 ------- 0 2.0 0.1 74 149
+ 1.684 1 3 cbr 1000 ------- 0 1.0 0.0 74 148
+ 1.684 2 3 cbr 1000 ------- 0 2.0 0.1 74 149
r 1.684228 3 0 cbr 1000 ------- 0 1.0 0.0 72 144
- 1.68432 1 3 cbr 1000 ------- 0 1.0 0.0 73 146
r 1.692436 3 0 cbr 1000 ------- 0 1.0 0.0 73 146
- 1.692528 1 3 cbr 1000 ------- 0 1.0 0.0 74 148
h 1.7 1 3 cbr 1000 ------- 0 1.0 0.0 75 150
h 1.7 2 3 cbr 1000 ------- 0 2.0 0.1 75 151
+ 1.7 1 3 cbr 1000 ------- 0 1.0 0.0 75 150
+ 1.7 2 3 cbr 1000 ------- 0 2.0 0.1 75 151
r 1.700644 3 0 cbr 1000 ------- 0 1.0 0.0 74 148
- 1.700736 1 3 cbr 1000 ------- 0 1.0 0.0 75 150
r 1.708852 3 0 cbr 1000 ------- 0 1.0 0.0 75 150
h 1.716 1 3 cbr 1000 ------- 0 1.0 0.0 76 152
h 1.716 2 3 cbr 1000 ------- 0 2.0 0.1 76 153
+ 1.716 1 3 cbr 1000 ------- 0 1.0 0.0 76 152
- 1.716 1 3 cbr 1000 ------- 0 1.0 0.0 76 152
+ 1.716 2 3 cbr 1000 ------- 0 2.0 0.1 76 153
r 1.717064 3 0 cbr 1000 ------- 0 2.0 0.1 61 123
- 1.717156 2 3 cbr 1000 ------- 0 2.0 0.1 62 125
r 1.727076 3 0 cbr 1000 ------- 0 1.0 0.0 76 152
h 1.732 1 3 cbr 1000 ------- 0 1.0 0.0 77 154
h 1.732 2 3 cbr 1000 ------- 0 2.0 0.1 77 155
+ 1.732 1 3 cbr 1000 ------- 0 1.0 0.0 77 154
- 1.732 1 3 cbr 1000 ------- 0 1.0 0.0 77 154
+ 1.732 2 3 cbr 1000 ------- 0 2.0 0.1 77 155
r 1.735288 3 0 cbr 1000 ------- 0 2.0 0.1 62 125
- 1.73538 2 3 cbr 1000 ------- 0 2.0 0.1 63 127
r 1.744784 3 0 cbr 1000 ------- 0 2.0 0.1 63 127
- 1.744876 2 3 cbr 1000 ------- 0 2.0 0.1 64 129
h 1.748 1 3 cbr 1000 ------- 0 1.0 0.0 78 156
h 1.748 2 3 cbr 1000 ------- 0 2.0 0.1 78 157
+ 1.748 1 3 cbr 1000 ------- 0 1.0 0.0 78 156
+ 1.748 2 3 cbr 1000 ------- 0 2.0 0.1 78 157
r 1.75364 3 0 cbr 1000 ------- 0 2.0 0.1 64 129
- 1.753732 2 3 cbr 1000 ------- 0 2.0 0.1 65 131
r 1.762496 3 0 cbr 1000 ------- 0 2.0 0.1 65 131
- 1.762588 2 3 cbr 1000 ------- 0 2.0 0.1 66 133
h 1.764 1 3 cbr 1000 ------- 0 1.0 0.0 79 158
h 1.764 2 3 cbr 1000 ------- 0 2.0 0.1 79 159
+ 1.764 1 3 cbr 1000 ------- 0 1.0 0.0 79 158
+ 1.764 2 3 cbr 1000 ------- 0 2.0 0.1 79 159
r 1.771352 3 0 cbr 1000 ------- 0 2.0 0.1 66 133
- 1.771444 2 3 cbr 1000 ------- 0 2.0 0.1 67 135
r 1.77956 3 0 cbr 1000 ------- 0 2.0 0.1 67 135
- 1.779652 2 3 cbr 1000 ------- 0 2.0 0.1 68 137
h 1.78 1 3 cbr 1000 ------- 0 1.0 0.0 80 160
h 1.78 2 3 cbr 1000 ------- 0 2.0 0.1 80 161
+ 1.78 1 3 cbr 1000 ------- 0 1.0 0.0 80 160
+ 1.78 2 3 cbr 1000 ------- 0 2.0 0.1 80 161
r 1.788416 3 0 cbr 1000 ------- 0 2.0 0.1 68 137
- 1.788508 2 3 cbr 1000 ------- 0 2.0 0.1 69 139
h 1.796 1 3 cbr 1000 ------- 0 1.0 0.0 81 162
h 1.796 2 3 cbr 1000 ------- 0 2.0 0.1 81 163
+ 1.796 1 3 cbr 1000 ------- 0 1.0 0.0 81 162
+ 1.796 2 3 cbr 1000 ------- 0 2.0 0.1 81 163
r 1.796624 3 0 cbr 1000 ------- 0 2.0 0.1 69 139
- 1.796716 2 3 cbr 1000 ------- 0 2.0 0.1 70 141
r 1.804832 3 0 cbr 1000 ------- 0 2.0 0.1 70 141
- 1.804924 2 3 cbr 1000 ------- 0 2.0 0.1 71 143
h 1.812 1 3 cbr 1000 ------- 0 1.0 0.0 82 164
h 1.812 2 3 cbr 1000 ------- 0 2.0 0.1 82 165
+ 1.812 1 3 cbr 1000 ------- 0 1.0 0.0 82 164
+ 1.812 2 3 cbr 1000 ------- 0 2.0 0.1 82 165
r 1.81304 3 0 cbr 1000 ------- 0 2.0 0.1 71 143
- 1.813132 2 3 cbr 1000 ------- 0 2.0 0.1 72 145
r 1.821896 3 0 cbr 1000 ------- 0 2.0 0.1 72 145
- 1.821988 2 3 cbr 1000 ------- 0 2.0 0.1 73 147
h 1.828 1 3 cbr 1000 ------- 0 1.0 0.0 83 166