h 0.5 1 3 cbr 1000 ------- 0 1.0 0.0 0 0
h 0.5 2 3 cbr 1000 ------- 0 2.0 0.1 0 1
+ 0.5 1 3 cbr 1000 ------- 0 1.0 0.0 0 0
- 0.5 1 3 cbr 1000 ------- 0 1.0 0.0 0 0
+ 0.5 2 3 cbr 1000 ------- 0 2.0 0.1 0 1
- 0.5 2 3 cbr 1000 ------- 0 2.0 0.1 0 1
h 0.508889 1 3 cbr 1000 ------- 0 1.0 0.0 1 2
+ 0.508889 1 3 cbr 1000 ------- 0 1.0 0.0 1 2
r 0.509916 3 0 cbr 1000 ------- 0 1.0 0.0 0 0
- 0.510008 1 3 cbr 1000 ------- 0 1.0 0.0 1 2
h 0.516 2 3 cbr 1000 ------- 0 2.0 0.1 1 3
+ 0.516 2 3 cbr 1000 ------- 0 2.0 0.1 1 3
h 0.517778 1 3 cbr 1000 ------- 0 1.0 0.0 2 4
+ 0.517778 1 3 cbr 1000 ------- 0 1.0 0.0 2 4
r 0.518772 3 0 cbr 1000 ------- 0 1.0 0.0 1 2
- 0.518864 1 3 cbr 1000 ------- 0 1.0 0.0 2 4
h 0.526667 1 3 cbr 1000 ------- 0 1.0 0.0 3 5
+ 0.526667 1 3 cbr 1000 ------- 0 1.0 0.0 3 5
r 0.528268 3 0 cbr 1000 ------- 0 1.0 0.0 2 4
- 0.52836 1 3 cbr 1000 ------- 0 1.0 0.0 3 5
h 0.532 2 3 cbr 1000 ------- 0 2.0 0.1 2 6
+ 0.532 2 3 cbr 1000 ------- 0 2.0 0.1 2 6
h 0.535556 1 3 cbr 1000 ------- 0 1.0 0.0 4 7
+ 0.535556 1 3 cbr 1000 ------- 0 1.0 0.0 4 7
r 0.536612 3 0 cbr 1000 ------- 0 1.0 0.0 3 5
- 0.536704 1 3 cbr 1000 ------- 0 1.0 0.0 4 7
h 0.544444 1 3 cbr 1000 ------- 0 1.0 0.0 5 8
+ 0.544444 1 3 cbr 1000 ------- 0 1.0 0.0 5 8
r 0.54482 3 0 cbr 1000 ------- 0 1.0 0.0 4 7
- 0.544912 1 3 cbr 1000 ------- 0 1.0 0.0 5 8
h 0.548 2 3 cbr 1000 ------- 0 2.0 0.1 3 9
+ 0.548 2 3 cbr 1000 ------- 0 2.0 0.1 3 9
r 0.553028 3 0 cbr 1000 ------- 0 1.0 0.0 5 8
h 0.553333 1 3 cbr 1000 ------- 0 1.0 0.0 6 10
+ 0.553333 1 3 cbr 1000 ------- 0 1.0 0.0 6 10
- 0.553333 1 3 cbr 1000 ------- 0 1.0 0.0 6 10
r 0.561449 3 0 cbr 1000 ------- 0 1.0 0.0 6 10
h 0.562222 1 3 cbr 1000 ------- 0 1.0 0.0 7 11
+ 0.562222 1 3 cbr 1000 ------- 0 1.0 0.0 7 11
- 0.562222 1 3 cbr 1000 ------- 0 1.0 0.0 7 11
h 0.564 2 3 cbr 1000 ------- 0 2.0 0.1 4 12
+ 0.564 2 3 cbr 1000 ------- 0 2.0 0.1 4 12
r 0.569661 3 0 cbr 1000 ------- 0 2.0 0.1 0 1
- 0.569753 2 3 cbr 1000 ------- 0 2.0 0.1 1 3
h 0.571111 1 3 cbr 1000 ------- 0 1.0 0.0 8 13
+ 0.571111 1 3 cbr 1000 ------- 0 1.0 0.0 8 13
r 0.578005 3 0 cbr 1000 ------- 0 2.0 0.1 1 3
- 0.578097 2 3 cbr 1000 ------- 0 2.0 0.1 2 6
h 0.58 1 3 cbr 1000 ------- 0 1.0 0.0 9 14
+ 0.58 1 3 cbr 1000 ------- 0 1.0 0.0 9 14
h 0.58 2 3 cbr 1000 ------- 0 2.0 0.1 5 15
+ 0.58 2 3 cbr 1000 ------- 0 2.0 0.1 5 15
r 0.586989 3 0 cbr 1000 ------- 0 2.0 0.1 2 6
- 0.587081 2 3 cbr 1000 ------- 0 2.0 0.1 3 9
h 0.588889 1 3 cbr 1000 ------- 0 1.0 0.0 10 16
+ 0.588889 1 3 cbr 1000 ------- 0 1.0 0.0 10 16
h 0.596 2 3 cbr 1000 ------- 0 2.0 0.1 6 17
+ 0.596 2 3 cbr 1000 ------- 0 2.0 0.1 6 17
r 0.596485 3 0 cbr 1000 ------- 0 2.0 0.1 3 9
- 0.596577 2 3 cbr 1000 ------- 0 2.0 0.1 4 12
h 0.597778 1 3 cbr 1000 ------- 0 1.0 0.0 11 18
+ 0.597778 1 3 cbr 1000 ------- 0 1.0 0.0 11 18
r 0.604693 3 0 cbr 1000 ------- 0 2.0 0.1 4 12
- 0.604785 2 3 cbr 1000 ------- 0 2.0 0.1 5 15
h 0.606667 1 3 cbr 1000 ------- 0 1.0 0.0 12 19
+ 0.606667 1 3 cbr 1000 ------- 0 1.0 0.0 12 19
h 0.612 2 3 cbr 1000 ------- 0 2.0 0.1 7 20
+ 0.612 2 3 cbr 1000 ------- 0 2.0 0.1 7 20
r 0.613549 3 0 cbr 1000 ------- 0 2.0 0.1 5 15
- 0.613641 2 3 cbr 1000 ------- 0 2.0 0.1 6 17
h 0.615556 1 3 cbr 1000 ------- 0 1.0 0.0 13 21
+ 0.615556 1 3 cbr 1000 ------- 0 1.0 0.0 13 21
r 0.621757 3 0 cbr 1000 ------- 0 2.0 0.1 6 17
- 0.621849 2 3 cbr 1000 ------- 0 2.0 0.1 7 20
h 0.624444 1 3 cbr 1000 ------- 0 1.0 0.0 14 22
+ 0.624444 1 3 cbr 1000 ------- 0 1.0 0.0 14 22
h 0.628 2 3 cbr 1000 ------- 0 2.0 0.1 8 23
+ 0.628 2 3 cbr 1000 ------- 0 2.0 0.1 8 23
r 0.629965 3 0 cbr 1000 ------- 0 2.0 0.1 7 20
- 0.630057 2 3 cbr 1000 ------- 0 2.0 0.1 8 23
h 0.633333 1 3 cbr 1000 ------- 0 1.0 0.0 15 24
+ 0.633333 1 3 cbr 1000 ------- 0 1.0 0.0 15 24
r 0.638173 3 0 cbr 1000 ------- 0 2.0 0.1 8 23
h 0.642222 1 3 cbr 1000 ------- 0 1.0 0.0 16 25
+ 0.642222 1 3 cbr 1000 ------- 0 1.0 0.0 16 25
h 0.644 2 3 cbr 1000 ------- 0 2.0 0.1 9 26
+ 0.644 2 3 cbr 1000 ------- 0 2.0 0.1 9 26
- 0.644 2 3 cbr 1000 ------- 0 2.0 0.1 9 26
r 0.646385 3 0 cbr 1000 ------- 0 1.0 0.0 7 11
- 0.646477 1 3 cbr 1000 ------- 0 1.0 0.0 8 13
h 0.651111 1 3 cbr 1000 ------- 0 1.0 0.0 17 27
+ 0.651111 1 3 cbr 1000 ------- 0 1.0 0.0 17 27
r 0.654857 3 0 cbr 1000 ------- 0 1.0 0.0 8 13
- 0.654949 1 3 cbr 1000 ------- 0 1.0 0.0 9 14
h 0.66 1 3 cbr 1000 ------- 0 1.0 0.0 18 28
+ 0.66 1 3 cbr 1000 ------- 0 1.0 0.0 18 28
h 0.66 2 3 cbr 1000 ------- 0 2.0 0.1 10 29
+ 0.66 2 3 cbr 1000 ------- 0 2.0 0.1 10 29
r 0.663713 3 0 cbr 1000 ------- 0 1.0 0.0 9 14
- 0.663805 1 3 cbr 1000 ------- 0 1.0 0.0 10 16
h 0.668889 1 3 cbr 1000 ------- 0 1.0 0.0 19 30
+ 0.668889 1 3 cbr 1000 ------- 0 1.0 0.0 19 30
r 0.672569 3 0 cbr 1000 ------- 0 1.0 0.0 10 16
- 0.672661 1 3 cbr 1000 ------- 0 1.0 0.0 11 18
h 0.676 2 3 cbr 1000 ------- 0 2.0 0.1 11 31
+ 0.676 2 3 cbr 1000 ------- 0 2.0 0.1 11 31
h 0.677778 1 3 cbr 1000 ------- 0 1.0 0.0 20 32
+ 0.677778 1 3 cbr 1000 ------- 0 1.0 0.0 20 32
r 0.680913 3 0 cbr 1000 ------- 0 1.0 0.0 11 18
- 0.681005 1 3 cbr 1000 ------- 0 1.0 0.0 12 19
h 0.686667 1 3 cbr 1000 ------- 0 1.0 0.0 21 33
+ 0.686667 1 3 cbr 1000 ------- 0 1.0 0.0 21 33
r 0.689121 3 0 cbr 1000 ------- 0 1.0 0.0 12 19
- 0.689213 1 3 cbr 1000 ------- 0 1.0 0.0 13 21
h 0.692 2 3 cbr 1000 ------- 0 2.0 0.1 12 34
+ 0.692 2 3 cbr 1000 ------- 0 2.0 0.1 12 34
h 0.695556 1 3 cbr 1000 ------- 0 1.0 0.0 22 35
+ 0.695556 1 3 cbr 1000 ------- 0 1.0 0.0 22 35
r 0.697465 3 0 cbr 1000 ------- 0 1.0 0.0 13 21
- 0.697557 1 3 cbr 1000 ------- 0 1.0 0.0 14 22
h 0.704444 1 3 cbr 1000 ------- 0 1.0 0.0 23 36
+ 0.704444 1 3 cbr 1000 ------- 0 1.0 0.0 23 36
r 0.705673 3 0 cbr 1000 ------- 0 1.0 0.0 14 22
- 0.705765 1 3 cbr 1000 ------- 0 1.0 0.0 15 24
h 0.708 2 3 cbr 1000 ------- 0 2.0 0.1 13 37
+ 0.708 2 3 cbr 1000 ------- 0 2.0 0.1 13 37
h 0.713333 1 3 cbr 1000 ------- 0 1.0 0.0 24 38
+ 0.713333 1 3 cbr 1000 ------- 0 1.0 0.0 24 38
r 0.713881 3 0 cbr 1000 ------- 0 1.0 0.0 15 24
- 0.713973 1 3 cbr 1000 ------- 0 1.0 0.0 16 25
h 0.722222 1 3 cbr 1000 ------- 0 1.0 0.0 25 39
+ 0.722222 1 3 cbr 1000 ------- 0 1.0 0.0 25 39
r 0.722737 3 0 cbr 1000 ------- 0 1.0 0.0 16 25
- 0.722829 1 3 cbr 1000 ------- 0 1.0 0.0 17 27
h 0.724 2 3 cbr 1000 ------- 0 2.0 0.1 14 40
+ 0.724 2 3 cbr 1000 ------- 0 2.0 0.1 14 40
r 0.730945 3 0 cbr 1000 ------- 0 1.0 0.0 17 27
- 0.731037 1 3 cbr 1000 ------- 0 1.0 0.0 18 28
h 0.731111 1 3 cbr 1000 ------- 0 1.0 0.0 26 41
+ 0.731111 1 3 cbr 1000 ------- 0 1.0 0.0 26 41
r 0.739153 3 0 cbr 1000 ------- 0 1.0 0.0 18 28
- 0.739245 1 3 cbr 1000 ------- 0 1.0 0.0 19 30
h 0.74 1 3 cbr 1000 ------- 0 1.0 0.0 27 42
+ 0.74 1 3 cbr 1000 ------- 0 1.0 0.0 27 42
h 0.74 2 3 cbr 1000 ------- 0 2.0 0.1 15 43
+ 0.74 2 3 cbr 1000 ------- 0 2.0 0.1 15 43
r 0.747361 3 0 cbr 1000 ------- 0 1.0 0.0 19 30
- 0.747453 1 3 cbr 1000 ------- 0 1.0 0.0 20 32
h 0.748889 1 3 cbr 1000 ------- 0 1.0 0.0 28 44
+ 0.748889 1 3 cbr 1000 ------- 0 1.0 0.0 28 44
h 0.756 2 3 cbr 1000 ------- 0 2.0 0.1 16 45
+ 0.756 2 3 cbr 1000 ------- 0 2.0 0.1 16 45
r 0.756217 3 0 cbr 1000 ------- 0 1.0 0.0 20 32
- 0.756309 1 3 cbr 1000 ------- 0 1.0 0.0 21 33
h 0.757778 1 3 cbr 1000 ------- 0 1.0 0.0 29 46
+ 0.757778 1 3 cbr 1000 ------- 0 1.0 0.0 29 46
r 0.764425 3 0 cbr 1000 ------- 0 1.0 0.0 21 33
- 0.764517 1 3 cbr 1000 ------- 0 1.0 0.0 22 35
h 0.766667 1 3 cbr 1000 ------- 0 1.0 0.0 30 47
+ 0.766667 1 3 cbr 1000 ------- 0 1.0 0.0 30 47
h 0.772 2 3 cbr 1000 ------- 0 2.0 0.1 17 48
+ 0.772 2 3 cbr 1000 ------- 0 2.0 0.1 17 48
r 0.772769 3 0 cbr 1000 ------- 0 1.0 0.0 22 35
- 0.772861 1 3 cbr 1000 ------- 0 1.0 0.0 23 36
h 0.775556 1 3 cbr 1000 ------- 0 1.0 0.0 31 49
+ 0.775556 1 3 cbr 1000 ------- 0 1.0 0.0 31 49
r 0.780977 3 0 cbr 1000 ------- 0 1.0 0.0 23 36
- 0.781069 1 3 cbr 1000 ------- 0 1.0 0.0 24 38
h 0.784444 1 3 cbr 1000 ------- 0 1.0 0.0 32 50
+ 0.784444 1 3 cbr 1000 ------- 0 1.0 0.0 32 50
h 0.788 2 3 cbr 1000 ------- 0 2.0 0.1 18 51
+ 0.788 2 3 cbr 1000 ------- 0 2.0 0.1 18 51
r 0.789185 3 0 cbr 1000 ------- 0 1.0 0.0 24 38
- 0.789277 1 3 cbr 1000 ------- 0 1.0 0.0 25 39
h 0.793333 1 3 cbr 1000 ------- 0 1.0 0.0 33 52
+ 0.793333 1 3 cbr 1000 ------- 0 1.0 0.0 33 52
r 0.797393 3 0 cbr 1000 ------- 0 1.0 0.0 25 39
- 0.797485 1 3 cbr 1000 ------- 0 1.0 0.0 26 41
h 0.802222 1 3 cbr 1000 ------- 0 1.0 0.0 34 53
+ 0.802222 1 3 cbr 1000 ------- 0 1.0 0.0 34 53
h 0.804 2 3 cbr 1000 ------- 0 2.0 0.1 19 54
+ 0.804 2 3 cbr 1000 ------- 0 2.0 0.1 19 54
r 0.805601 3 0 cbr 1000 ------- 0 1.0 0.0 26 41
- 0.805693 1 3 cbr 1000 ------- 0 1.0 0.0 27 42
h 0.811111 1 3 cbr 1000 ------- 0 1.0 0.0 35 55
+ 0.811111 1 3 cbr 1000 ------- 0 1.0 0.0 35 55
r 0.813809 3 0 cbr 1000 ------- 0 1.0 0.0 27 42
- 0.813901 1 3 cbr 1000 ------- 0 1.0 0.0 28 44
h 0.82 1 3 cbr 1000 ------- 0 1.0 0.0 36 56
+ 0.82 1 3 cbr 1000 ------- 0 1.0 0.0 36 56
h 0.82 2 3 cbr 1000 ------- 0 2.0 0.1 20 57
+ 0.82 2 3 cbr 1000 ------- 0 2.0 0.1 20 57
r 0.822017 3 0 cbr 1000 ------- 0 1.0 0.0 28 44
- 0.822109 1 3 cbr 1000 ------- 0 1.0 0.0 29 46
h 0.828889 1 3 cbr 1000 ------- 0 1.0 0.0 37 58
+ 0.828889 1 3 cbr 1000 ------- 0 1.0 0.0 37 58
r 0.830225 3 0 cbr 1000 ------- 0 1.0 0.0 29 46
- 0.830317 1 3 cbr 1000 ------- 0 1.0 0.0 30 47
h 0.836 2 3 cbr 1000 ------- 0 2.0 0.1 21 59
+ 0.836 2 3 cbr 1000 ------- 0 2.0 0.1 21 59
h 0.837778 1 3 cbr 1000 ------- 0 1.0 0.0 38 60
+ 0.837778 1 3 cbr 1000 ------- 0 1.0 0.0 38 60
r 0.838433 3 0 cbr 1000 ------- 0 1.0 0.0 30 47
- 0.838525 1 3 cbr 1000 ------- 0 1.0 0.0 31 49
r 0.846641 3 0 cbr 1000 ------- 0 1.0 0.0 31 49
h 0.846667 1 3 cbr 1000 ------- 0 1.0 0.0 39 61
+ 0.846667 1 3 cbr 1000 ------- 0 1.0 0.0 39 61
- 0.846733 1 3 cbr 1000 ------- 0 1.0 0.0 32 50
h 0.852 2 3 cbr 1000 ------- 0 2.0 0.1 22 62
+ 0.852 2 3 cbr 1000 ------- 0 2.0 0.1 22 62
r 0.855497 3 0 cbr 1000 ------- 0 1.0 0.0 32 50
h 0.855556 1 3 cbr 1000 ------- 0 1.0 0.0 40 63
+ 0.855556 1 3 cbr 1000 ------- 0 1.0 0.0 40 63
- 0.855589 1 3 cbr 1000 ------- 0 1.0 0.0 33 52
r 0.863705 3 0 cbr 1000 ------- 0 1.0 0.0 33 52
- 0.863797 1 3 cbr 1000 ------- 0 1.0 0.0 34 53
h 0.864444 1 3 cbr 1000 ------- 0 1.0 0.0 41 64
+ 0.864444 1 3 cbr 1000 ------- 0 1.0 0.0 41 64
h 0.868 2 3 cbr 1000 ------- 0 2.0 0.1 23 65
+ 0.868 2 3 cbr 1000 ------- 0 2.0 0.1 23 65
r 0.871913 3 0 cbr 1000 ------- 0 1.0 0.0 34 53
- 0.872005 1 3 cbr 1000 ------- 0 1.0 0.0 35 55
h 0.873333 1 3 cbr 1000 ------- 0 1.0 0.0 42 66
+ 0.873333 1 3 cbr 1000 ------- 0 1.0 0.0 42 66
r 0.880121 3 0 cbr 1000 ------- 0 1.0 0.0 35 55
- 0.880213 1 3 cbr 1000 ------- 0 1.0 0.0 36 56
h 0.882222 1 3 cbr 1000 ------- 0 1.0 0.0 43 67
+ 0.882222 1 3 cbr 1000 ------- 0 1.0 0.0 43 67
h 0.884 2 3 cbr 1000 ------- 0 2.0 0.1 24 68
+ 0.884 2 3 cbr 1000 ------- 0 2.0 0.1 24 68
r 0.888329 3 0 cbr 1000 ------- 0 1.0 0.0 36 56
- 0.888421 1 3 cbr 1000 ------- 0 1.0 0.0 37 58
h 0.891111 1 3 cbr 1000 ------- 0 1.0 0.0 44 69
+ 0.891111 1 3 cbr 1000 ------- 0 1.0 0.0 44 69
r 0.896537 3 0 cbr 1000 ------- 0 1.0 0.0 37 58
- 0.896629 1 3 cbr 1000 ------- 0 1.0 0.0 38 60
h 0.9 1 3 cbr 1000 ------- 0 1.0 0.0 45 70
+ 0.9 1 3 cbr 1000 ------- 0 1.0 0.0 45 70
h 0.9 2 3 cbr 1000 ------- 0 2.0 0.1 25 71
+ 0.9 2 3 cbr 1000 ------- 0 2.0 0.1 25 71
r 0.904745 3 0 cbr 1000 ------- 0 1.0 0.0 38 60
- 0.904837 1 3 cbr 1000 ------- 0 1.0 0.0 39 61
h 0.908889 1 3 cbr 1000 ------- 0 1.0 0.0 46 72
+ 0.908889 1 3 cbr 1000 ------- 0 1.0 0.0 46 72
r 0.912953 3 0 cbr 1000 ------- 0 1.0 0.0 39 61
- 0.913045 1 3 cbr 1000 ------- 0 1.0 0.0 40 63
h 0.916 2 3 cbr 1000 ------- 0 2.0 0.1 26 73
+ 0.916 2 3 cbr 1000 ------- 0 2.0 0.1 26 73
h 0.917778 1 3 cbr 1000 ------- 0 1.0 0.0 47 74
+ 0.917778 1 3 cbr 1000 ------- 0 1.0 0.0 47 74
r 0.921161 3 0 cbr 1000 ------- 0 1.0 0.0 40 63
- 0.921253 1 3 cbr 1000 ------- 0 1.0 0.0 41 64
h 0.926667 1 3 cbr 1000 ------- 0 1.0 0.0 48 75
+ 0.926667 1 3 cbr 1000 ------- 0 1.0 0.0 48 75
r 0.929369 3 0 cbr 1000 ------- 0 1.0 0.0 41 64
- 0.929461 1 3 cbr 1000 ------- 0 1.0 0.0 42 66
h 0.932 2 3 cbr 1000 ------- 0 2.0 0.1 27 76
+ 0.932 2 3 cbr 1000 ------- 0 2.0 0.1 27 76
h 0.935556 1 3 cbr 1000 ------- 0 1.0 0.0 49 77
+ 0.935556 1 3 cbr 1000 ------- 0 1.0 0.0 49 77
r 0.937577 3 0 cbr 1000 ------- 0 1.0 0.0 42 66
- 0.937669 1 3 cbr 1000 ------- 0 1.0 0.0 43 67
h 0.944444 1 3 cbr 1000 ------- 0 1.0 0.0 50 78
+ 0.944444 1 3 cbr 1000 ------- 0 1.0 0.0 50 78
r 0.945785 3 0 cbr 1000 ------- 0 1.0 0.0 43 67
- 0.945877 1 3 cbr 1000 ------- 0 1.0 0.0 44 69
h 0.948 2 3 cbr 1000 ------- 0 2.0 0.1 28 79
+ 0.948 2 3 cbr 1000 ------- 0 2.0 0.1 28 79
h 0.953333 1 3 cbr 1000 ------- 0 1.0 0.0 51 80
+ 0.953333 1 3 cbr 1000 ------- 0 1.0 0.0 51 80
r 0.953993 3 0 cbr 1000 ------- 0 1.0 0.0 44 69
- 0.954085 1 3 cbr 1000 ------- 0 1.0 0.0 45 70
r 0.962201 3 0 cbr 1000 ------- 0 1.0 0.0 45 70
h 0.962222 1 3 cbr 1000 ------- 0 1.0 0.0 52 81
+ 0.962222 1 3 cbr 1000 ------- 0 1.0 0.0 52 81
- 0.962293 1 3 cbr 1000 ------- 0 1.0 0.0 46 72
h 0.964 2 3 cbr 1000 ------- 0 2.0 0.1 29 82
+ 0.964 2 3 cbr 1000 ------- 0 2.0 0.1 29 82
r 0.970409 3 0 cbr 1000 ------- 0 1.0 0.0 46 72
- 0.970501 1 3 cbr 1000 ------- 0 1.0 0.0 47 74
h 0.971111 1 3 cbr 1000 ------- 0 1.0 0.0 53 83
+ 0.971111 1 3 cbr 1000 ------- 0 1.0 0.0 53 83
r 0.978617 3 0 cbr 1000 ------- 0 1.0 0.0 47 74
- 0.978709 1 3 cbr 1000 ------- 0 1.0 0.0 48 75
h 0.98 1 3 cbr 1000 ------- 0 1.0 0.0 54 84
+ 0.98 1 3 cbr 1000 ------- 0 1.0 0.0 54 84
h 0.98 2 3 cbr 1000 ------- 0 2.0 0.1 30 85
+ 0.98 2 3 cbr 1000 ------- 0 2.0 0.1 30 85
r 0.986825 3 0 cbr 1000 ------- 0 1.0 0.0 48 75
- 0.986917 1 3 cbr 1000 ------- 0 1.0 0.0 49 77
h 0.988889 1 3 cbr 1000 ------- 0 1.0 0.0 55 86
+ 0.988889 1 3 cbr 1000 ------- 0 1.0 0.0 55 86
r 0.995033 3 0 cbr 1000 ------- 0 1.0 0.0 49 77
- 0.995125 1 3 cbr 1000 ------- 0 1.0 0.0 50 78
h 0.996 2 3 cbr 1000 ------- 0 2.0 0.1 31 87
+ 0.996 2 3 cbr 1000 ------- 0 2.0 0.1 31 87
h 0.997778 1 3 cbr 1000 ------- 0 1.0 0.0 56 88
+ 0.997778 1 3 cbr 1000 ------- 0 1.0 0.0 56 88
r 1.003241 3 0 cbr 1000 ------- 0 1.0 0.0 50 78
- 1.003333 1 3 cbr 1000 ------- 0 1.0 0.0 51 80
h 1.006667 1 3 cbr 1000 ------- 0 1.0 0.0 57 89
+ 1.006667 1 3 cbr 1000 ------- 0 1.0 0.0 57 89
r 1.011449 3 0 cbr 1000 ------- 0 1.0 0.0 51 80
- 1.011541 1 3 cbr 1000 ------- 0 1.0 0.0 52 81
h 1.012 2 3 cbr 1000 ------- 0 2.0 0.1 32 90
+ 1.012 2 3 cbr 1000 ------- 0 2.0 0.1 32 90
h 1.015556 1 3 cbr 1000 ------- 0 1.0 0.0 58 91
+ 1.015556 1 3 cbr 1000 ------- 0 1.0 0.0 58 91
r 1.019657 3 0 cbr 1000 ------- 0 1.0 0.0 52 81
- 1.019749 1 3 cbr 1000 ------- 0 1.0 0.0 53 83
h 1.024444 1 3 cbr 1000 ------- 0 1.0 0.0 59 92
+ 1.024444 1 3 cbr 1000 ------- 0 1.0 0.0 59 92
r 1.027865 3 0 cbr 1000 ------- 0 1.0 0.0 53 83
- 1.027957 1 3 cbr 1000 ------- 0 1.0 0.0 54 84
h 1.028 2 3 cbr 1000 ------- 0 2.0 0.1 33 93
+ 1.028 2 3 cbr 1000 ------- 0 2.0 0.1 33 93
h 1.033333 1 3 cbr 1000 ------- 0 1.0 0.0 60 94
+ 1.033333 1 3 cbr 1000 ------- 0 1.0 0.0 60 94
r 1.036073 3 0 cbr 1000 ------- 0 1.0 0.0 54 84
- 1.036165 1 3 cbr 1000 ------- 0 1.0 0.0 55 86
h 1.042222 1 3 cbr 1000 ------- 0 1.0 0.0 61 95
+ 1.042222 1 3 cbr 1000 ------- 0 1.0 0.0 61 95
h 1.044 2 3 cbr 1000 ------- 0 2.0 0.1 34 96
+ 1.044 2 3 cbr 1000 ------- 0 2.0 0.1 34 96
r 1.044281 3 0 cbr 1000 ------- 0 1.0 0.0 55 86
- 1.044373 1 3 cbr 1000 ------- 0 1.0 0.0 56 88
h 1.051111 1 3 cbr 1000 ------- 0 1.0 0.0 62 97
+ 1.051111 1 3 cbr 1000 ------- 0 1.0 0.0 62 97
r 1.052489 3 0 cbr 1000 ------- 0 1.0 0.0 56 88
- 1.052581 1 3 cbr 1000 ------- 0 1.0 0.0 57 89
h 1.06 1 3 cbr 1000 ------- 0 1.0 0.0 63 98
+ 1.06 1 3 cbr 1000 ------- 0 1.0 0.0 63 98
h 1.06 2 3 cbr 1000 ------- 0 2.0 0.1 35 99
+ 1.06 2 3 cbr 1000 ------- 0 2.0 0.1 35 99
r 1.060697 3 0 cbr 1000 ------- 0 1.0 0.0 57 89
- 1.060789 1 3 cbr 1000 ------- 0 1.0 0.0 58 91
h 1.068889 1 3 cbr 1000 ------- 0 1.0 0.0 64 100
+ 1.068889 1 3 cbr 1000 ------- 0 1.0 0.0 64 100
r 1.068905 3 0 cbr 1000 ------- 0 1.0 0.0 58 91
- 1.068997 1 3 cbr 1000 ------- 0 1.0 0.0 59 92
h 1.076 2 3 cbr 1000 ------- 0 2.0 0.1 36 101
+ 1.076 2 3 cbr 1000 ------- 0 2.0 0.1 36 101
r 1.077113 3 0 cbr 1000 ------- 0 1.0 0.0 59 92
- 1.077205 1 3 cbr 1000 ------- 0 1.0 0.0 60 94
h 1.077778 1 3 cbr 1000 ------- 0 1.0 0.0 65 102
+ 1.077778 1 3 cbr 1000 ------- 0 1.0 0.0 65 102
r 1.085321 3 0 cbr 1000 ------- 0 1.0 0.0 60 94
- 1.085413 1 3 cbr 1000 ------- 0 1.0 0.0 61 95
h 1.086667 1 3 cbr 1000 ------- 0 1.0 0.0 66 103
+ 1.086667 1 3 cbr 1000 ------- 0 1.0 0.0 66 103
h 1.092 2 3 cbr 1000 ------- 0 2.0 0.1 37 104
+ 1.092 2 3 cbr 1000 ------- 0 2.0 0.1 37 104
r 1.093529 3 0 cbr 1000 ------- 0 1.0 0.0 61 95
- 1.093621 1 3 cbr 1000 ------- 0 1.0 0.0 62 97
h 1.095556 1 3 cbr 1000 ------- 0 1.0 0.0 67 105
+ 1.095556 1 3 cbr 1000 ------- 0 1.0 0.0 67 105
r 1.101737 3 0 cbr 1000 ------- 0 1.0 0.0 62 97
- 1.101829 1 3 cbr 1000 ------- 0 1.0 0.0 63 98
h 1.104444 1 3 cbr 1000 ------- 0 1.0 0.0 68 106
+ 1.104444 1 3 cbr 1000 ------- 0 1.0 0.0 68 106
h 1.108 2 3 cbr 1000 ------- 0 2.0 0.1 38 107
+ 1.108 2 3 cbr 1000 ------- 0 2.0 0.1 38 107
r 1.109945 3 0 cbr 1000 ------- 0 1.0 0.0 63 98
- 1.110037 1 3 cbr 1000 ------- 0 1.0 0.0 64 100
h 1.113333 1 3 cbr 1000 ------- 0 1.0 0.0 69 108
+ 1.113333 1 3 cbr 1000 ------- 0 1.0 0.0 69 108
r 1.118153 3 0 cbr 1000 ------- 0 1.0 0.0 64 100
- 1.118245 1 3 cbr 1000 ------- 0 1.0 0.0 65 102
h 1.122222 1 3 cbr 1000 ------- 0 1.0 0.0 70 109
+ 1.122222 1 3 cbr 1000 ------- 0 1.0 0.0 70 109
h 1.124 2 3 cbr 1000 ------- 0 2.0 0.1 39 110
+ 1.124 2 3 cbr 1000 ------- 0 2.0 0.1 39 110
r 1.126361 3 0 cbr 1000 ------- 0 1.0 0.0 65 102
- 1.126453 1 3 cbr 1000 ------- 0 1.0 0.0 66 103
h 1.131111 1 3 cbr 1000 ------- 0 1.0 0.0 71 111
+ 1.131111 1 3 cbr 1000 ------- 0 1.0 0.0 71 111
r 1.134569 3 0 cbr 1000 ------- 0 1.0 0.0 66 103
- 1.134661 1 3 cbr 1000 ------- 0 1.0 0.0 67 105
h 1.14 1 3 cbr 1000 ------- 0 1.0 0.0 72 112
+ 1.14 1 3 cbr 1000 ------- 0 1.0 0.0 72 112
h 1.14 2 3 cbr 1000 ------- 0 2.0 0.1 40 113
+ 1.14 2 3 cbr 1000 ------- 0 2.0 0.1 40 113
r 1.142777 3 0 cbr 1000 ------- 0 1.0 0.0 67 105
- 1.142869 1 3 cbr 1000 ------- 0 1.0 0.0 68 106
h 1.148889 1 3 cbr 1000 ------- 0 1.0 0.0 73 114
+ 1.148889 1 3 cbr 1000 ------- 0 1.0 0.0 73 114
r 1.150985 3 0 cbr 1000 ------- 0 1.0 0.0 68 106
- 1.151077 1 3 cbr 1000 ------- 0 1.0 0.0 69 108
h 1.156 2 3 cbr 1000 ------- 0 2.0 0.1 41 115
+ 1.156 2 3 cbr 1000 ------- 0 2.0 0.1 41 115
h 1.157778 1 3 cbr 1000 ------- 0 1.0 0.0 74 116
+ 1.157778 1 3 cbr 1000 ------- 0 1.0 0.0 74 116
r 1.159193 3 0 cbr 1000 ------- 0 1.0 0.0 69 108
- 1.159285 1 3 cbr 1000 ------- 0 1.0 0.0 70 109
h 1.166667 1 3 cbr 1000 ------- 0 1.0 0.0 75 117
+ 1.166667 1 3 cbr 1000 ------- 0 1.0 0.0 75 117
r 1.167401 3 0 cbr 1000 ------- 0 1.0 0.0 70 109
- 1.167493 1 3 cbr 1000 ------- 0 1.0 0.0 71 111
h 1.172 2 3 cbr 1000 ------- 0 2.0 0.1 42 118
+ 1.172 2 3 cbr 1000 ------- 0 2.0 0.1 42 118
h 1.175556 1 3 cbr 1000 ------- 0 1.0 0.0 76 119
+ 1.175556 1 3 cbr 1000 ------- 0 1.0 0.0 76 119
r 1.175609 3 0 cbr 1000 ------- 0 1.0 0.0 71 111
- 1.175701 1 3 cbr 1000 ------- 0 1.0 0.0 72 112
r 1.183817 3 0 cbr 1000 ------- 0 1.0 0.0 72 112
- 1.183909 1 3 cbr 1000 ------- 0 1.0 0.0 73 114
h 1.184444 1 3 cbr 1000 ------- 0 1.0 0.0 77 120
+ 1.184444 1 3 cbr 1000 ------- 0 1.0 0.0 77 120
h 1.188 2 3 cbr 1000 ------- 0 2.0 0.1 43 121
+ 1.188 2 3 cbr 1000 ------- 0 2.0 0.1 43 121
r 1.192025 3 0 cbr 1000 ------- 0 1.0 0.0 73 114
- 1.192117 1 3 cbr 1000 ------- 0 1.0 0.0 74 116
h 1.193333 1 3 cbr 1000 ------- 0 1.0 0.0 78 122
+ 1.193333 1 3 cbr 1000 ------- 0 1.0 0.0 78 122
r 1.200233 3 0 cbr 1000 ------- 0 1.0 0.0 74 116
- 1.200325 1 3 cbr 1000 ------- 0 1.0 0.0 75 117
h 1.202222 1 3 cbr 1000 ------- 0 1.0 0.0 79 123
+ 1.202222 1 3 cbr 1000 ------- 0 1.0 0.0 79 123
h 1.204 2 3 cbr 1000 ------- 0 2.0 0.1 44 124
+ 1.204 2 3 cbr 1000 ------- 0 2.0 0.1 44 124
r 1.208441 3 0 cbr 1000 ------- 0 1.0 0.0 75 117
- 1.208533 1 3 cbr 1000 ------- 0 1.0 0.0 76 119
h 1.211111 1 3 cbr 1000 ------- 0 1.0 0.0 80 125
+ 1.211111 1 3 cbr 1000 ------- 0 1.0 0.0 80 125
r 1.216649 3 0 cbr 1000 ------- 0 1.0 0.0 76 119
- 1.216741 1 3 cbr 1000 ------- 0 1.0 0.0 77 120
h 1.22 1 3 cbr 1000 ------- 0 1.0 0.0 81 126
+ 1.22 1 3 cbr 1000 ------- 0 1.0 0.0 81 126
h 1.22 2 3 cbr 1000 ------- 0 2.0 0.1 45 127
+ 1.22 2 3 cbr 1000 ------- 0 2.0 0.1 45 127
r 1.224857 3 0 cbr 1000 ------- 0 1.0 0.0 77 120
- 1.224949 1 3 cbr 1000 ------- 0 1.0 0.0 78 122
h 1.228889 1 3 cbr 1000 ------- 0 1.0 0.0 82 128
+ 1.228889 1 3 cbr 1000 ------- 0 1.0 0.0 82 128
r 1.233065 3 0 cbr 1000 ------- 0 1.0 0.0 78 122
- 1.233157 1 3 cbr 1000 ------- 0 1.0 0.0 79 123
h 1.236 2 3 cbr 1000 ------- 0 2.0 0.1 46 129
+ 1.236 2 3 cbr 1000 ------- 0 2.0 0.1 46 129
h 1.237778 1 3 cbr 1000 ------- 0 1.0 0.0 83 130
+ 1.237778 1 3 cbr 1000 ------- 0 1.0 0.0 83 130
r 1.241273 3 0 cbr 1000 ------- 0 1.0 0.0 79 123
- 1.241365 1 3 cbr 1000 ------- 0 1.0 0.0 80 125
h 1.246667 1 3 cbr 1000 ------- 0 1.0 0.0 84 131
+ 1.246667 1 3 cbr 1000 ------- 0 1.0 0.0 84 131
r 1.249481 3 0 cbr 1000 ------- 0 1.0 0.0 80 125
- 1.249573 1 3 cbr 1000 ------- 0 1.0 0.0 81 126
h 1.252 2 3 cbr 1000 ------- 0 2.0 0.1 47 132
+ 1.252 2 3 cbr 1000 ------- 0 2.0 0.1 47 132
h 1.255556 1 3 cbr 1000 ------- 0 1.0 0.0 85 133
+ 1.255556 1 3 cbr 1000 ------- 0 1.0 0.0 85 133
r 1.257689 3 0 cbr 1000 ------- 0 1.0 0.0 81 126
- 1.257781 1 3 cbr 1000 ------- 0 1.0 0.0 82 128
h 1.264444 1 3 cbr 1000 ------- 0 1.0 0.0 86 134
+ 1.264444 1 3 cbr 1000 ------- 0 1.0 0.0 86 134
r 1.265897 3 0 cbr 1000 ------- 0 1.0 0.0 82 128
- 1.265989 1 3 cbr 1000 ------- 0 1.0 0.0 83 130
h 1.268 2 3 cbr 1000 ------- 0 2.0 0.1 48 135
+ 1.268 2 3 cbr 1000 ------- 0 2.0 0.1 48 135
h 1.273333 1 3 cbr 1000 ------- 0 1.0 0.0 87 136
+ 1.273333 1 3 cbr 1000 ------- 0 1.0 0.0 87 136
r 1.274105 3 0 cbr 1000 ------- 0 1.0 0.0 83 130
- 1.274197 1 3 cbr 1000 ------- 0 1.0 0.0 84 131
h 1.282222 1 3 cbr 1000 ------- 0 1.0 0.0 88 137
+ 1.282222 1 3 cbr 1000 ------- 0 1.0 0.0 88 137
r 1.282313 3 0 cbr 1000 ------- 0 1.0 0.0 84 131
- 1.282405 1 3 cbr 1000 ------- 0 1.0 0.0 85 133
h 1.284 2 3 cbr 1000 ------- 0 2.0 0.1 49 138
+ 1.284 2 3 cbr 1000 ------- 0 2.0 0.1 49 138
r 1.290521 3 0 cbr 1000 ------- 0 1.0 0.0 85 133
- 1.290613 1 3 cbr 1000 ------- 0 1.0 0.0 86 134
h 1.291111 1 3 cbr 1000 ------- 0 1.0 0.0 89 139
+ 1.291111 1 3 cbr 1000 ------- 0 1.0 0.0 89 139
r 1.298729 3 0 cbr 1000 ------- 0 1.0 0.0 86 134
- 1.298821 1 3 cbr 1000 ------- 0 1.0 0.0 87 136
h 1.3 1 3 cbr 1000 ------- 0 1.0 0.0 90 140
+ 1.3 1 3 cbr 1000 ------- 0 1.0 0.0 90 140
h 1.3 2 3 cbr 1000 ------- 0 2.0 0.1 50 141
+ 1.3 2 3 cbr 1000 ------- 0 2.0 0.1 50 141
r 1.306937 3 0 cbr 1000 ------- 0 1.0 0.0 87 136
- 1.307029 1 3 cbr 1000 ------- 0 1.0 0.0 88 137
h 1.308889 1 3 cbr 1000 ------- 0 1.0 0.0 91 142
+ 1.308889 1 3 cbr 1000 ------- 0 1.0 0.0 91 142
r 1.315145 3 0 cbr 1000 ------- 0 1.0 0.0 88 137
- 1.315237 1 3 cbr 1000 ------- 0 1.0 0.0 89 139
h 1.316 2 3 cbr 1000 ------- 0 2.0 0.1 51 143
+ 1.316 2 3 cbr 1000 ------- 0 2.0 0.1 51 143
h 1.317778 1 3 cbr 1000 ------- 0 1.0 0.0 92 144
+ 1.317778 1 3 cbr 1000 ------- 0 1.0 0.0 92 144
r 1.323489 3 0 cbr 1000 ------- 0 1.0 0.0 89 139
- 1.323581 1 3 cbr 1000 ------- 0 1.0 0.0 90 140
h 1.326667 1 3 cbr 1000 ------- 0 1.0 0.0 93 145
+ 1.326667 1 3 cbr 1000 ------- 0 1.0 0.0 93 145
r 1.331697 3 0 cbr 1000 ------- 0 1.0 0.0 90 140
- 1.331789 1 3 cbr 1000 ------- 0 1.0 0.0 91 142
h 1.332 2 3 cbr 1000 ------- 0 2.0 0.1 52 146
+ 1.332 2 3 cbr 1000 ------- 0 2.0 0.1 52 146
h 1.335556 1 3 cbr 1000 ------- 0 1.0 0.0 94 147
+ 1.335556 1 3 cbr 1000 ------- 0 1.0 0.0 94 147
r 1.339905 3 0 cbr 1000 ------- 0 1.0 0.0 91 142
- 1.339997 1 3 cbr 1000 ------- 0 1.0 0.0 92 144
h 1.344444 1 3 cbr 1000 ------- 0 1.0 0.0 95 148
+ 1.344444 1 3 cbr 1000 ------- 0 1.0 0.0 95 148
h 1.348 2 3 cbr 1000 ------- 0 2.0 0.1 53 149
+ 1.348 2 3 cbr 1000 ------- 0 2.0 0.1 53 149
r 1.348113 3 0 cbr 1000 ------- 0 1.0 0.0 92 144
- 1.348205 1 3 cbr 1000 ------- 0 1.0 0.0 93 145
h 1.353333 1 3 cbr 1000 ------- 0 1.0 0.0 96 150
+ 1.353333 1 3 cbr 1000 ------- 0 1.0 0.0 96 150
r 1.356321 3 0 cbr 1000 ------- 0 1.0 0.0 93 145
- 1.356413 1 3 cbr 1000 ------- 0 1.0 0.0 94 147
h 1.362222 1 3 cbr 1000 ------- 0 1.0 0.0 97 151
+ 1.362222 1 3 cbr 1000 ------- 0 1.0 0.0 97 151
h 1.364 2 3 cbr 1000 ------- 0 2.0 0.1 54 152
+ 1.364 2 3 cbr 1000 ------- 0 2.0 0.1 54 152
r 1.364529 3 0 cbr 1000 ------- 0 1.0 0.0 94 147
- 1.364621 1 3 cbr 1000 ------- 0 1.0 0.0 95 148
h 1.371111 1 3 cbr 1000 ------- 0 1.0 0.0 98 153
+ 1.371111 1 3 cbr 1000 ------- 0 1.0 0.0 98 153
r 1.372737 3 0 cbr 1000 ------- 0 1.0 0.0 95 148
- 1.372829 1 3 cbr 1000 ------- 0 1.0 0.0 96 150
h 1.38 1 3 cbr 1000 ------- 0 1.0 0.0 99 154
+ 1.38 1 3 cbr 1000 ------- 0 1.0 0.0 99 154
h 1.38 2 3 cbr 1000 ------- 0 2.0 0.1 55 155
+ 1.38 2 3 cbr 1000 ------- 0 2.0 0.1 55 155
r 1.380945 3 0 cbr 1000 ------- 0 1.0 0.0 96 150
- 1.381037 1 3 cbr 1000 ------- 0 1.0 0.0 97 151
h 1.388889 1 3 cbr 1000 ------- 0 1.0 0.0 100 156
+ 1.388889 1 3 cbr 1000 ------- 0 1.0 0.0 100 156
r 1.389153 3 0 cbr 1000 ------- 0 1.0 0.0 97 151
- 1.389245 1 3 cbr 1000 ------- 0 1.0 0.0 98 153
h 1.396 2 3 cbr 1000 ------- 0 2.0 0.1 56 157
+ 1.396 2 3 cbr 1000 ------- 0 2.0 0.1 56 157
r 1.397361 3 0 cbr 1000 ------- 0 1.0 0.0 98 153
- 1.397453 1 3 cbr 1000 ------- 0 1.0 0.0 99 154
h 1.397778 1 3 cbr 1000 ------- 0 1.0 0.0 101 158
+ 1.397778 1 3 cbr 1000 ------- 0 1.0 0.0 101 158
r 1.405569 3 0 cbr 1000 ------- 0 1.0 0.0 99 154
- 1.405661 1 3 cbr 1000 ------- 0 1.0 0.0 100 156
h 1.406667 1 3 cbr 1000 ------- 0 1.0 0.0 102 159
+ 1.406667 1 3 cbr 1000 ------- 0 1.0 0.0 102 159
h 1.412 2 3 cbr 1000 ------- 0 2.0 0.1 57 160
+ 1.412 2 3 cbr 1000 ------- 0 2.0 0.1 57 160
r 1.413777 3 0 cbr 1000 ------- 0 1.0 0.0 100 156
- 1.413869 1 3 cbr 1000 ------- 0 1.0 0.0 101 158
h 1.415556 1 3 cbr 1000 ------- 0 1.0 0.0 103 161
+ 1.415556 1 3 cbr 1000 ------- 0 1.0 0.0 103 161
r 1.421985 3 0 cbr 1000 ------- 0 1.0 0.0 101 158
- 1.422077 1 3 cbr 1000 ------- 0 1.0 0.0 102 159
h 1.424444 1 3 cbr 1000 ------- 0 1.0 0.0 104 162
+ 1.424444 1 3 cbr 1000 ------- 0 1.0 0.0 104 162
h 1.428 2 3 cbr 1000 ------- 0 2.0 0.1 58 163
+ 1.428 2 3 cbr 1000 ------- 0 2.0 0.1 58 163
r 1.430193 3 0 cbr 1000 ------- 0 1.0 0.0 102 159
- 1.430285 1 3 cbr 1000 ------- 0 1.0 0.0 103 161
h 1.433333 1 3 cbr 1000 ------- 0 1.0 0.0 105 164
+ 1.433333 1 3 cbr 1000 ------- 0 1.0 0.0 105 164
r 1.438537 3 0 cbr 1000 ------- 0 1.0 0.0 103 161
- 1.438629 1 3 cbr 1000 ------- 0 1.0 0.0 104 162
h 1.442222 1 3 cbr 1000 ------- 0 1.0 0.0 106 165
+ 1.442222 1 3 cbr 1000 ------- 0 1.0 0.0 106 165
h 1.444 2 3 cbr 1000 ------- 0 2.0 0.1 59 166
+ 1.444 2 3 cbr 1000 ------- 0 2.0 0.1 59 166
d 1.444 2 3 cbr 1000 ------- 0 2.0 0.1 59 166
r 1.446745 3 0 cbr 1000 ------- 0 1.0 0.0 104 162
- 1.446837 1 3 cbr 1000 ------- 0 1.0 0.0 105 164
h 1.451111 1 3 cbr 1000 ------- 0 1.0 0.0 107 167
+ 1.451111 1 3 cbr 1000 ------- 0 1.0 0.0 107 167
r 1.454953 3 0 cbr 1000 ------- 0 1.0 0.0 105 164
- 1.455045 1 3 cbr 1000 ------- 0 1.0 0.0 106 165
h 1.46 1 3 cbr 1000 ------- 0 1.0 0.0 108 168
+ 1.46 1 3 cbr 1000 ------- 0 1.0 0.0 108 168
h 1.46 2 3 cbr 1000 ------- 0 2.0 0.1 60 169
+ 1.46 2 3 cbr 1000 ------- 0 2.0 0.1 60 169
d 1.46 2 3 cbr 1000 ------- 0 2.0 0.1 60 169
r 1.463161 3 0 cbr 1000 ------- 0 1.0 0.0 106 165
- 1.463253 1 3 cbr 1000 ------- 0 1.0 0.0 107 167
h 1.468889 1 3 cbr 1000 ------- 0 1.0 0.0 109 170
+ 1.468889 1 3 cbr 1000 ------- 0 1.0 0.0 109 170
r 1.471369 3 0 cbr 1000 ------- 0 1.0 0.0 107 167
- 1.471461 1 3 cbr 1000 ------- 0 1.0 0.0 108 168
h 1.476 2 3 cbr 1000 ------- 0 2.0 0.1 61 171
+ 1.476 2 3 cbr 1000 ------- 0 2.0 0.1 61 171
d 1.476 2 3 cbr 1000 ------- 0 2.0 0.1 61 171
h 1.477778 1 3 cbr 1000 ------- 0 1.0 0.0 110 172
+ 1.477778 1 3 cbr 1000 ------- 0 1.0 0.0 110 172
r 1.479577 3 0 cbr 1000 ------- 0 1.0 0.0 108 168
- 1.479669 1 3 cbr 1000 ------- 0 1.0 0.0 109 170
h 1.486667 1 3 cbr 1000 ------- 0 1.0 0.0 111 173
+ 1.486667 1 3 cbr 1000 ------- 0 1.0 0.0 111 173
r 1.487785 3 0 cbr 1000 ------- 0 1.0 0.0 109 170
- 1.487877 1 3 cbr 1000 ------- 0 1.0 0.0 110 172
h 1.492 2 3 cbr 1000 ------- 0 2.0 0.1 62 174
+ 1.492 2 3 cbr 1000 ------- 0 2.0 0.1 62 174
d 1.492 2 3 cbr 1000 ------- 0 2.0 0.1 62 174
h 1.495556 1 3 cbr 1000 ------- 0 1.0 0.0 112 175
+ 1.495556 1 3 cbr 1000 ------- 0 1.0 0.0 112 175
r 1.495993 3 0 cbr 1000 ------- 0 1.0 0.0 110 172
- 1.496085 1 3 cbr 1000 ------- 0 1.0 0.0 111 173
r 1.504201 3 0 cbr 1000 ------- 0 1.0 0.0 111 173
- 1.504293 1 3 cbr 1000 ------- 0 1.0 0.0 112 175
h 1.504444 1 3 cbr 1000 ------- 0 1.0 0.0 113 176
+ 1.504444 1 3 cbr 1000 ------- 0 1.0 0.0 113 176
h 1.508 2 3 cbr 1000 ------- 0 2.0 0.1 63 177
+ 1.508 2 3 cbr 1000 ------- 0 2.0 0.1 63 177
d 1.508 2 3 cbr 1000 ------- 0 2.0 0.1 63 177
r 1.512409 3 0 cbr 1000 ------- 0 1.0 0.0 112 175
- 1.512501 1 3 cbr 1000 ------- 0 1.0 0.0 113 176
h 1.513333 1 3 cbr 1000 ------- 0 1.0 0.0 114 178
+ 1.513333 1 3 cbr 1000 ------- 0 1.0 0.0 114 178
r 1.520617 3 0 cbr 1000 ------- 0 1.0 0.0 113 176
- 1.520709 1 3 cbr 1000 ------- 0 1.0 0.0 114 178
h 1.522222 1 3 cbr 1000 ------- 0 1.0 0.0 115 179
+ 1.522222 1 3 cbr 1000 ------- 0 1.0 0.0 115 179
h 1.524 2 3 cbr 1000 ------- 0 2.0 0.1 64 180
+ 1.524 2 3 cbr 1000 ------- 0 2.0 0.1 64 180
d 1.524 2 3 cbr 1000 ------- 0 2.0 0.1 64 180
r 1.528825 3 0 cbr 1000 ------- 0 1.0 0.0 114 178
- 1.528917 1 3 cbr 1000 ------- 0 1.0 0.0 115 179
h 1.531111 1 3 cbr 1000 ------- 0 1.0 0.0 116 181